# vtk DataFile Version 3.1
director profile
ASCII
DATASET UNSTRUCTURED_GRID

POINTS 13343 FLOAT
0.741648 0.062194 0.174287
1.064407 0.067659 0.093670
0.539075 0.841667 0.061952
0.169999 0.183490 0.036841
0.455103 0.693540 0.263577
1.677772 0.363438 0.026074
1.508658 0.038561 0.018747
1.114431 0.638719 0.038463
1.510573 0.861991 0.037464
1.258021 0.674429 0.026270
2.275610 0.305406 0.276513
3.133147 0.537173 0.178589
3.447574 0.187016 0.036807
4.863615 0.024172 0.281250
5.545429 0.372878 0.261814
6.924955 0.165792 0.262095
7.493766 0.413636 0.023180
8.000604 0.497971 0.074374
8.449926 0.649312 0.036518
8.631968 0.819729 0.039098
9.128042 0.199456 0.102165
8.352674 0.184059 0.262015
8.360086 0.059331 0.168451
7.942821 0.022275 0.280625
6.535772 0.613657 0.238524
4.027250 0.220525 0.263038
2.527791 0.535663 0.212553
1.625057 0.684843 0.227556
0.848444 0.024107 0.281473
0.185961 0.211363 0.233346
0.022601 0.859686 0.018101
0.084046 0.578389 0.244312
0.458569 0.783866 0.226252
1.067774 0.982679 0.262500
0.294490 0.458425 0.262800
0.057317 0.546171 0.075572
0.014343 0.253279 0.019189
0.772978 0.454355 0.046573
2.681221 0.469933 0.270169
3.300874 0.973405 0.262500
4.246460 0.696246 0.135936
5.876228 0.244795 0.262766
6.744321 0.016354 0.016086
7.791858 0.035755 0.113920
8.586191 0.038138 0.281250
9.735222 0.035117 0.170016
9.778049 0.360567 0.224373
9.687681 0.611865 0.116802
9.972178 0.215304 0.259185
8.662849 0.867137 0.264098
8.791906 0.379405 0.267012
7.617166 0.244280 0.150127
8.163353 0.209420 0.074959
7.291749 0.044349 0.236715
6.844010 0.023192 0.018750
7.402894 0.826367 0.114423
7.998543 0.340859 0.213533
8.318463 0.980974 0.037500
7.528739 0.578124 0.023817
8.123262 0.361526 0.112863
9.606581 0.824970 0.232894
9.485060 0.847602 0.036990
9.366542 0.460618 0.262031
8.584919 0.134990 0.140929
8.315673 0.374719 0.029871
8.158810 0.128868 0.065773
8.064047 0.266459 0.037308
7.746750 0.171505 0.162845
7.180724 0.073571 0.181326
6.620904 0.786248 0.170571
5.743482 0.599338 0.114934
4.631294 0.345100 0.084525
3.142090 0.327175 0.023755
2.054854 0.344531 0.228174
1.813712 0.456999 0.025640
1.469599 0.980263 0.018750
2.374261 0.920545 0.248283
3.540252 0.922597 0.136996
5.498122 0.847885 0.232626
8.343742 0.690474 0.224479
7.972841 0.320705 0.076270
6.155555 0.446625 0.025858
5.698635 0.638743 0.041012
5.160727 0.507617 0.074952
5.178426 0.680370 0.261923
6.479995 0.202920 0.132938
7.161706 0.345594 0.031337
7.455162 0.024164 0.018748
7.308010 0.489910 0.049370
7.341204 0.932762 0.061868
7.803525 0.980540 0.037500
7.926126 0.507991 0.036634
8.098529 0.873093 0.263147
8.949974 0.836085 0.106924
9.975230 0.751691 0.049448
8.649780 0.980722 0.281250
7.191888 0.950569 0.080642
5.369734 0.082244 0.057098
3.546406 0.026200 0.023563
2.478985 0.164238 0.262023
1.776095 0.834689 0.265120
0.871117 0.362831 0.258025
0.559668 0.322934 0.227340
0.580568 0.157896 0.269324
1.536176 0.644254 0.228512
1.377136 0.909248 0.100554
2.022640 0.028639 0.123038
2.728525 0.924801 0.168109
4.408307 0.549804 0.089602
6.446508 0.403274 0.023636
7.510817 0.102107 0.083388
7.245488 0.113076 0.274214
6.959344 0.970411 0.139580
7.606776 0.952001 0.230286
8.036134 0.773648 0.152331
7.840249 0.821376 0.134001
7.230721 0.955058 0.018750
7.043227 0.677516 0.189480
6.342862 0.765787 0.098817
6.938648 0.926460 0.252080
7.041779 0.487700 0.024724
8.032564 0.121592 0.069081
7.562118 0.296734 0.237936
6.381194 0.218126 0.078635
4.039903 0.931496 0.144017
2.527544 0.143353 0.024430
1.487856 0.695659 0.037994
1.208440 0.215632 0.218470
0.532593 0.902531 0.243925
0.277334 0.885906 0.036501
0.723773 0.305477 0.238957
1.398946 0.028448 0.119353
1.838796 0.853153 0.078415
2.997781 0.868088 0.240232
3.880420 0.393289 0.273650
5.048599 0.439881 0.023402
5.273870 0.146255 0.038348
4.825820 0.400256 0.237945
4.839010 0.019714 0.078750
6.342381 0.242672 0.106140
6.700503 0.391617 0.075231
7.026752 0.641657 0.088040
6.488750 0.313706 0.121566
6.466447 0.291128 0.234251
5.958229 0.306112 0.262766
5.907029 0.016688 0.262500
6.180194 0.307742 0.146086
7.168601 0.686325 0.227508
8.230732 0.793082 0.233217
8.333490 0.297501 0.066886
9.007893 0.035315 0.134261
8.959511 0.548037 0.213524
9.575126 0.830705 0.232894
9.922095 0.589628 0.055653
9.492590 0.336870 0.114290
9.215601 0.338747 0.036356
9.590367 0.278976 0.140597
8.796539 0.231562 0.213615
7.610520 0.504257 0.238238
6.748731 0.978005 0.018899
4.992460 0.922697 0.048150
4.686880 0.826957 0.066461
4.484489 0.948930 0.152142
6.021593 0.970246 0.109603
7.494868 0.284469 0.036931
8.588378 0.281059 0.024197
9.042201 0.719525 0.037085
9.135895 0.722578 0.156949
8.791903 0.758240 0.033713
9.015299 0.593510 0.061410
9.526971 0.283882 0.238468
9.210755 0.472065 0.277341
9.446376 0.155890 0.272845
9.243733 0.218654 0.237364
8.733774 0.823956 0.118346
9.359239 0.305181 0.206041
9.784636 0.063837 0.224474
9.979139 0.149220 0.025407
9.981657 0.841046 0.018051
9.694714 0.768467 0.075613
9.179744 0.069529 0.211949
8.940243 0.030253 0.018750
8.141432 0.614277 0.030054
6.119991 0.072011 0.051440
4.888451 0.933543 0.160229
3.550632 0.900442 0.099496
2.349387 0.974592 0.075000
1.251417 0.979385 0.018750
0.413790 0.940663 0.122159
0.183145 0.834719 0.233126
0.933264 0.206328 0.036544
2.179412 0.473830 0.060599
2.369435 0.233278 0.270784
2.028067 0.786882 0.193796
2.002352 0.366672 0.265504
2.848125 0.534037 0.061393
3.142156 0.370423 0.272005
2.929351 0.555874 0.206673
1.975522 0.290909 0.074625
1.925518 0.454383 0.262338
2.585232 0.672332 0.252075
1.581794 0.801641 0.224502
1.799283 0.896117 0.265120
1.428667 0.875316 0.268714
1.689706 0.685851 0.212674
2.728393 0.368343 0.113044
3.665422 0.857066 0.220884
5.312335 0.875718 0.263509
6.209995 0.791087 0.254695
7.155349 0.145737 0.263362
7.537492 0.026734 0.140963
8.258616 0.482427 0.149775
8.689471 0.500186 0.262110
9.210930 0.455461 0.026330
8.940145 0.468894 0.063567
8.418300 0.075432 0.251276
8.817161 0.073407 0.125165
8.651159 0.025861 0.181286
8.637837 0.640146 0.187687
8.306863 0.263365 0.203258
7.237089 0.841220 0.263061
6.407069 0.590131 0.174792
4.933784 0.415299 0.164144
4.349978 0.732209 0.175689
3.163008 0.912772 0.240046
2.474589 0.132381 0.262023
1.991239 0.028639 0.104277
1.634314 0.502022 0.047587
1.325953 0.326136 0.111817
0.928575 0.406551 0.104709
0.902244 0.229595 0.036544
0.057835 0.627568 0.093874
1.649558 0.052130 0.092515
2.168637 0.226628 0.227727
4.541529 0.188400 0.142362
6.059355 0.125635 0.062882
8.606444 0.528697 0.128637
9.228685 0.664667 0.081895
9.684033 0.874388 0.033456
9.756788 0.747481 0.187612
9.642046 0.019006 0.026271
9.547813 0.163031 0.259497
8.483649 0.049905 0.065801
6.161496 0.026055 0.283839
4.177801 0.023708 0.264710
2.119717 0.548609 0.239609
2.727799 0.858674 0.074359
2.522552 0.667648 0.278240
4.007943 0.051549 0.152635
4.950875 0.971912 0.104400
6.121204 0.814907 0.064715
6.838097 0.829669 0.263107
8.096136 0.279158 0.262308
8.606012 0.656755 0.075853
8.090399 0.655150 0.068092
8.011888 0.462909 0.112676
7.203026 0.688504 0.090179
6.434449 0.025272 0.198094
6.211868 0.616753 0.123584
4.904789 0.595783 0.085356
3.932404 0.283453 0.224950
3.672948 0.978512 0.018750
3.110929 0.430214 0.208932
1.814548 0.198975 0.027721
1.929292 0.118750 0.236897
0.712186 0.146096 0.082478
1.843835 0.895764 0.097165
2.327656 0.653830 0.031128
1.789708 0.407145 0.262806
2.072929 0.022249 0.262624
3.018129 0.574468 0.223210
4.510704 0.299526 0.025687
4.808335 0.919186 0.055829
4.263444 0.971570 0.037500
3.766607 0.148966 0.269615
3.264706 0.145559 0.036982
3.648250 0.369742 0.062269
4.700218 0.848997 0.265750
5.393223 0.884853 0.261493
5.283274 0.762596 0.215751
5.289343 0.838250 0.263509
5.932509 0.085258 0.198913
5.231613 0.021436 0.075000
5.115298 0.293711 0.131558
4.559993 0.626860 0.224846
5.331135 0.642479 0.076407
5.686618 0.835943 0.037060
7.348812 0.435957 0.277054
8.127432 0.551733 0.067793
8.453817 0.934082 0.122556
8.500816 0.721995 0.174226
9.111015 0.569684 0.060502
9.035063 0.774985 0.229519
9.331615 0.970198 0.037501
9.336866 0.937403 0.225281
7.723403 0.346219 0.078038
6.835631 0.789352 0.217003
6.010812 0.600469 0.035431
5.421292 0.303592 0.115393
5.066195 0.977593 0.041250
6.796253 0.974679 0.065674
8.537345 0.250695 0.218286
8.661623 0.784660 0.075932
8.970291 0.035315 0.182174
9.882906 0.310620 0.036874
9.540154 0.326149 0.028976
9.101040 0.461370 0.261354
9.156252 0.640428 0.067932
8.700243 0.965065 0.189098
8.331135 0.778505 0.025088
8.006281 0.603701 0.270211
6.678109 0.700892 0.043227
4.773582 0.740087 0.274996
2.071692 0.124261 0.029323
1.890722 0.312095 0.261955
1.309655 0.207704 0.261830
2.494313 0.088357 0.056398
4.023507 0.389011 0.079475
4.052379 0.359370 0.116723
4.534528 0.110187 0.267037
5.657392 0.094672 0.095022
6.367120 0.346551 0.023636
6.274793 0.253384 0.065112
6.534244 0.336293 0.230760
6.304371 0.257872 0.276040
7.129543 0.642842 0.024761
6.886171 0.167125 0.262095
7.064692 0.963860 0.130988
7.467737 0.430589 0.155118
8.213349 0.666952 0.239766
8.816080 0.782258 0.274929
8.632309 0.283267 0.024197
9.046999 0.484424 0.073987
9.222732 0.972344 0.037500
8.907404 0.066159 0.281250
8.197868 0.056444 0.283839
8.115507 0.057258 0.196247
7.042364 0.154366 0.039504
6.009384 0.251522 0.262987
6.668707 0.142319 0.065036
6.861191 0.789956 0.038107
7.172503 0.929450 0.249392
7.502001 0.457956 0.154801
8.722713 0.600324 0.214897
7.057132 0.058693 0.227004
6.136013 0.232550 0.022684
4.464725 0.293743 0.224665
3.052699 0.268035 0.122818
2.116876 0.306212 0.175444
0.632939 0.240149 0.262232
0.325075 0.161456 0.038871
0.220147 0.016394 0.261441
0.263027 0.209774 0.271505
0.409787 0.046473 0.276671
0.909742 0.297705 0.094270
1.582083 0.510184 0.078298
1.718144 0.975972 0.180479
2.969379 0.982674 0.072857
3.792395 0.855278 0.058667
4.811233 0.827551 0.262079
4.596932 0.808702 0.067555
4.031565 0.714871 0.104380
2.843653 0.063896 0.120315
1.682395 0.017270 0.037391
0.821463 0.242387 0.149903
0.221443 0.062794 0.077870
[...]
POINT_DATA 13343
VECTORS director FLOAT
1.000000 0.000000 -0.000000
1.000000 0.000000 -0.000000
1.000000 0.000000 -0.000000
1.000000 0.000000 -0.000000
1.000000 0.000000 -0.000000
1.000000 0.000000 -0.000000
1.000000 0.000000 -0.000000
1.000000 0.000000 -0.000000
1.000000 0.000000 -0.000000
1.000000 0.000000 -0.000000
1.000000 0.000000 -0.000000
1.000000 0.000000 -0.000000
1.000000 0.000000 -0.000000
1.000000 0.000000 -0.000000
1.000000 0.000000 -0.000000
1.000000 0.000000 -0.000000
1.000000 0.000000 -0.000000
1.000000 0.000000 -0.000000
1.000000 0.000000 -0.000000
1.000000 0.000000 -0.000000
1.000000 0.000000 -0.000000
1.000000 0.000000 -0.000000
1.000000 0.000000 -0.000000
1.000000 0.000000 -0.000000
1.000000 0.000000 -0.000000
1.000000 0.000000 -0.000000
1.000000 0.000000 -0.000000
1.000000 0.000000 -0.000000
1.000000 0.000000 -0.000000
1.000000 0.000000 -0.000000
1.000000 0.000000 -0.000000
1.000000 0.000000 -0.000000
1.000000 0.000000 -0.000000
1.000000 0.000000 -0.000000
1.000000 0.000000 -0.000000
1.000000 0.000000 -0.000000
1.000000 0.000000 -0.000000
1.000000 0.000000 -0.000000
1.000000 0.000000 -0.000000
1.000000 0.000000 -0.000000
1.000000 0.000000 -0.000000
1.000000 0.000000 -0.000000
1.000000 0.000000 -0.000000
1.000000 0.000000 -0.000000
1.000000 0.000000 -0.000000
1.000000 0.000000 -0.000000
1.000000 0.000000 -0.000000
1.000000 0.000000 -0.000000
1.000000 0.000000 -0.000000
1.000000 0.000000 -0.000000
1.000000 0.000000 -0.000000
1.000000 0.000000 -0.000000
1.000000 0.000000 -0.000000
1.000000 0.000000 -0.000000
1.000000 0.000000 -0.000000
1.000000 0.000000 -0.000000
1.000000 0.000000 -0.000000
1.000000 0.000000 -0.000000
1.000000 0.000000 -0.000000
1.000000 0.000000 -0.000000
1.000000 0.000000 -0.000000
1.000000 0.000000 -0.000000
1.000000 0.000000 -0.000000
1.000000 0.000000 -0.000000
1.000000 0.000000 -0.000000
1.000000 0.000000 -0.000000
1.000000 0.000000 -0.000000
1.000000 0.000000 -0.000000
1.000000 0.000000 -0.000000
1.000000 0.000000 -0.000000
1.000000 0.000000 -0.000000
1.000000 0.000000 -0.000000
1.000000 0.000000 -0.000000
1.000000 0.000000 -0.000000
1.000000 0.000000 -0.000000
1.000000 0.000000 -0.000000
1.000000 0.000000 -0.000000
1.000000 0.000000 -0.000000
1.000000 0.000000 -0.000000
1.000000 0.000000 -0.000000
1.000000 0.000000 -0.000000
1.000000 0.000000 -0.000000
1.000000 0.000000 -0.000000
1.000000 0.000000 -0.000000
1.000000 0.000000 -0.000000
1.000000 0.000000 -0.000000
1.000000 0.000000 -0.000000
1.000000 0.000000 -0.000000
1.000000 0.000000 -0.000000
1.000000 0.000000 -0.000000
1.000000 0.000000 -0.000000
1.000000 0.000000 -0.000000
1.000000 0.000000 -0.000000
1.000000 0.000000 -0.000000
1.000000 0.000000 -0.000000
1.000000 0.000000 -0.000000
1.000000 0.000000 -0.000000
1.000000 0.000000 -0.000000
1.000000 0.000000 -0.000000
1.000000 0.000000 -0.000000
1.000000 0.000000 -0.000000
1.000000 0.000000 -0.000000
1.000000 0.000000 -0.000000
1.000000 0.000000 -0.000000
1.000000 0.000000 -0.000000
1.000000 0.000000 -0.000000
1.000000 0.000000 -0.000000
1.000000 0.000000 -0.000000
1.000000 0.000000 -0.000000
1.000000 0.000000 -0.000000
1.000000 0.000000 -0.000000
1.000000 0.000000 -0.000000
1.000000 0.000000 -0.000000
1.000000 0.000000 -0.000000
1.000000 0.000000 -0.000000
1.000000 0.000000 -0.000000
1.000000 0.000000 -0.000000
1.000000 0.000000 -0.000000
1.000000 0.000000 -0.000000
1.000000 0.000000 -0.000000
1.000000 0.000000 -0.000000
1.000000 0.000000 -0.000000
1.000000 0.000000 -0.000000
1.000000 0.000000 -0.000000
1.000000 0.000000 -0.000000
1.000000 0.000000 -0.000000
1.000000 0.000000 -0.000000
1.000000 0.000000 -0.000000
1.000000 0.000000 -0.000000
1.000000 0.000000 -0.000000
1.000000 0.000000 -0.000000
1.000000 0.000000 -0.000000
1.000000 0.000000 -0.000000
1.000000 0.000000 -0.000000
1.000000 0.000000 -0.000000
1.000000 0.000000 -0.000000
1.000000 0.000000 -0.000000
1.000000 0.000000 -0.000000
1.000000 0.000000 -0.000000
1.000000 0.000000 -0.000000
1.000000 0.000000 -0.000000
1.000000 0.000000 -0.000000
1.000000 0.000000 -0.000000
1.000000 0.000000 -0.000000
1.000000 0.000000 -0.000000
1.000000 0.000000 -0.000000
1.000000 0.000000 -0.000000
1.000000 0.000000 -0.000000
1.000000 0.000000 -0.000000
1.000000 0.000000 -0.000000
1.000000 0.000000 -0.000000
1.000000 0.000000 -0.000000
1.000000 0.000000 -0.000000
1.000000 0.000000 -0.000000
1.000000 0.000000 -0.000000
1.000000 0.000000 -0.000000
1.000000 0.000000 -0.000000
1.000000 0.000000 -0.000000
1.000000 0.000000 -0.000000
1.000000 0.000000 -0.000000
1.000000 0.000000 -0.000000
1.000000 0.000000 -0.000000
1.000000 0.000000 -0.000000
1.000000 0.000000 -0.000000
1.000000 0.000000 -0.000000
1.000000 0.000000 -0.000000
1.000000 0.000000 -0.000000
1.000000 0.000000 -0.000000
1.000000 0.000000 -0.000000
1.000000 0.000000 -0.000000
1.000000 0.000000 -0.000000
1.000000 0.000000 -0.000000
1.000000 0.000000 -0.000000
1.000000 0.000000 -0.000000
1.000000 0.000000 -0.000000
1.000000 0.000000 -0.000000
1.000000 0.000000 -0.000000
1.000000 0.000000 -0.000000
1.000000 0.000000 -0.000000
1.000000 0.000000 -0.000000
1.000000 0.000000 -0.000000
1.000000 0.000000 -0.000000
1.000000 0.000000 -0.000000
1.000000 0.000000 -0.000000
1.000000 0.000000 -0.000000
1.000000 0.000000 -0.000000
1.000000 0.000000 -0.000000
1.000000 0.000000 -0.000000
1.000000 0.000000 -0.000000
1.000000 0.000000 -0.000000
1.000000 0.000000 -0.000000
1.000000 0.000000 -0.000000
1.000000 0.000000 -0.000000
1.000000 0.000000 -0.000000
1.000000 0.000000 -0.000000
1.000000 0.000000 -0.000000
1.000000 0.000000 -0.000000
1.000000 0.000000 -0.000000
1.000000 0.000000 -0.000000
1.000000 0.000000 -0.000000
1.000000 0.000000 -0.000000
1.000000 0.000000 -0.000000
1.000000 0.000000 -0.000000
1.000000 0.000000 -0.000000
1.000000 0.000000 -0.000000
1.000000 0.000000 -0.000000
1.000000 0.000000 -0.000000
1.000000 0.000000 -0.000000
1.000000 0.000000 -0.000000
1.000000 0.000000 -0.000000
1.000000 0.000000 -0.000000
1.000000 0.000000 -0.000000
1.000000 0.000000 -0.000000
1.000000 0.000000 -0.000000
1.000000 0.000000 -0.000000
1.000000 0.000000 -0.000000
1.000000 0.000000 -0.000000
1.000000 0.000000 -0.000000
1.000000 0.000000 -0.000000
1.000000 0.000000 -0.000000
1.000000 0.000000 -0.000000
1.000000 0.000000 -0.000000
1.000000 0.000000 -0.000000
1.000000 0.000000 -0.000000
1.000000 0.000000 -0.000000
1.000000 0.000000 -0.000000
1.000000 0.000000 -0.000000
1.000000 0.000000 -0.000000
1.000000 0.000000 -0.000000
1.000000 0.000000 -0.000000
1.000000 0.000000 -0.000000
1.000000 0.000000 -0.000000
1.000000 0.000000 -0.000000
1.000000 0.000000 -0.000000
1.000000 0.000000 -0.000000
1.000000 0.000000 -0.000000
1.000000 0.000000 -0.000000
1.000000 0.000000 -0.000000
1.000000 0.000000 -0.000000
1.000000 0.000000 -0.000000
1.000000 0.000000 -0.000000
1.000000 0.000000 -0.000000
1.000000 0.000000 -0.000000
1.000000 0.000000 -0.000000
1.000000 0.000000 -0.000000
1.000000 0.000000 -0.000000
1.000000 0.000000 -0.000000
1.000000 0.000000 -0.000000
1.000000 0.000000 -0.000000
1.000000 0.000000 -0.000000
1.000000 0.000000 -0.000000
1.000000 0.000000 -0.000000
1.000000 0.000000 -0.000000
1.000000 0.000000 -0.000000
1.000000 0.000000 -0.000000
1.000000 0.000000 -0.000000
1.000000 0.000000 -0.000000
1.000000 0.000000 -0.000000
1.000000 0.000000 -0.000000
1.000000 0.000000 -0.000000
1.000000 0.000000 -0.000000
1.000000 0.000000 -0.000000
1.000000 0.000000 -0.000000
1.000000 0.000000 -0.000000
1.000000 0.000000 -0.000000
1.000000 0.000000 -0.000000
1.000000 0.000000 -0.000000
1.000000 0.000000 -0.000000
1.000000 0.000000 -0.000000
1.000000 0.000000 -0.000000
1.000000 0.000000 -0.000000
1.000000 0.000000 -0.000000
1.000000 0.000000 -0.000000
1.000000 0.000000 -0.000000
1.000000 0.000000 -0.000000
1.000000 0.000000 -0.000000
1.000000 0.000000 -0.000000
1.000000 0.000000 -0.000000
1.000000 0.000000 -0.000000
1.000000 0.000000 -0.000000
1.000000 0.000000 -0.000000
1.000000 0.000000 -0.000000
1.000000 0.000000 -0.000000
1.000000 0.000000 -0.000000
1.000000 0.000000 -0.000000
1.000000 0.000000 -0.000000
1.000000 0.000000 -0.000000
1.000000 0.000000 -0.000000
1.000000 0.000000 -0.000000
1.000000 0.000000 -0.000000
1.000000 0.000000 -0.000000
1.000000 0.000000 -0.000000
1.000000 0.000000 -0.000000
1.000000 0.000000 -0.000000
1.000000 0.000000 -0.000000
1.000000 0.000000 -0.000000
1.000000 0.000000 -0.000000
1.000000 0.000000 -0.000000
1.000000 0.000000 -0.000000
1.000000 0.000000 -0.000000
1.000000 0.000000 -0.000000
1.000000 0.000000 -0.000000
1.000000 0.000000 -0.000000
1.000000 0.000000 -0.000000
1.000000 0.000000 -0.000000
1.000000 0.000000 -0.000000
1.000000 0.000000 -0.000000
1.000000 0.000000 -0.000000
1.000000 0.000000 -0.000000
1.000000 0.000000 -0.000000
1.000000 0.000000 -0.000000
1.000000 0.000000 -0.000000
1.000000 0.000000 -0.000000
1.000000 0.000000 -0.000000
1.000000 0.000000 -0.000000
1.000000 0.000000 -0.000000
1.000000 0.000000 -0.000000
1.000000 0.000000 -0.000000
1.000000 0.000000 -0.000000
1.000000 0.000000 -0.000000
1.000000 0.000000 -0.000000
1.000000 0.000000 -0.000000
1.000000 0.000000 -0.000000
1.000000 0.000000 -0.000000
1.000000 0.000000 -0.000000
1.000000 0.000000 -0.000000
1.000000 0.000000 -0.000000
1.000000 0.000000 -0.000000
1.000000 0.000000 -0.000000
1.000000 0.000000 -0.000000
1.000000 0.000000 -0.000000
1.000000 0.000000 -0.000000
1.000000 0.000000 -0.000000
1.000000 0.000000 -0.000000
1.000000 0.000000 -0.000000
1.000000 0.000000 -0.000000
1.000000 0.000000 -0.000000
1.000000 0.000000 -0.000000
1.000000 0.000000 -0.000000
1.000000 0.000000 -0.000000
1.000000 0.000000 -0.000000
1.000000 0.000000 -0.000000
1.000000 0.000000 -0.000000
1.000000 0.000000 -0.000000
1.000000 0.000000 -0.000000
1.000000 0.000000 -0.000000
1.000000 0.000000 -0.000000
1.000000 0.000000 -0.000000
1.000000 0.000000 -0.000000
1.000000 0.000000 -0.000000
1.000000 0.000000 -0.000000
1.000000 0.000000 -0.000000
1.000000 0.000000 -0.000000
1.000000 0.000000 -0.000000
1.000000 0.000000 -0.000000
1.000000 0.000000 -0.000000
1.000000 0.000000 -0.000000
1.000000 0.000000 -0.000000
1.000000 0.000000 -0.000000
1.000000 0.000000 -0.000000
1.000000 0.000000 -0.000000
1.000000 0.000000 -0.000000
1.000000 0.000000 -0.000000
1.000000 0.000000 -0.000000
1.000000 0.000000 -0.000000
1.000000 0.000000 -0.000000
1.000000 0.000000 -0.000000
1.000000 0.000000 -0.000000
1.000000 0.000000 -0.000000
1.000000 0.000000 -0.000000
1.000000 0.000000 -0.000000
1.000000 0.000000 -0.000000
1.000000 0.000000 -0.000000
1.000000 0.000000 -0.000000
1.000000 0.000000 -0.000000
1.000000 0.000000 -0.000000
1.000000 0.000000 -0.000000
1.000000 0.000000 -0.000000
1.000000 0.000000 -0.000000
1.000000 0.000000 -0.000000
1.000000 0.000000 -0.000000
1.000000 0.000000 -0.000000
1.000000 0.000000 -0.000000
1.000000 0.000000 -0.000000
1.000000 0.000000 -0.000000
1.000000 0.000000 -0.000000
1.000000 0.000000 -0.000000
1.000000 0.000000 -0.000000
1.000000 0.000000 -0.000000
1.000000 0.000000 -0.000000
1.000000 0.000000 -0.000000
1.000000 0.000000 -0.000000
1.000000 0.000000 -0.000000
1.000000 0.000000 -0.000000
1.000000 0.000000 -0.000000
1.000000 0.000000 -0.000000
1.000000 0.000000 -0.000000
1.000000 0.000000 -0.000000
1.000000 0.000000 -0.000000
1.000000 0.000000 -0.000000
1.000000 0.000000 -0.000000
1.000000 0.000000 -0.000000
1.000000 0.000000 -0.000000
1.000000 0.000000 -0.000000
1.000000 0.000000 -0.000000
1.000000 0.000000 -0.000000
1.000000 0.000000 -0.000000
1.000000 0.000000 -0.000000
1.000000 0.000000 -0.000000
1.000000 0.000000 -0.000000
1.000000 0.000000 -0.000000
1.000000 0.000000 -0.000000
1.000000 0.000000 -0.000000
1.000000 0.000000 -0.000000
1.000000 0.000000 -0.000000
1.000000 0.000000 -0.000000
1.000000 0.000000 -0.000000
1.000000 0.000000 -0.000000
1.000000 0.000000 -0.000000
1.000000 0.000000 -0.000000
1.000000 0.000000 -0.000000
1.000000 0.000000 -0.000000
1.000000 0.000000 -0.000000
1.000000 0.000000 -0.000000
1.000000 0.000000 -0.000000
1.000000 0.000000 -0.000000
1.000000 0.000000 -0.000000
1.000000 0.000000 -0.000000
1.000000 0.000000 -0.000000
1.000000 0.000000 -0.000000
1.000000 0.000000 -0.000000
1.000000 0.000000 -0.000000
1.000000 0.000000 -0.000000
1.000000 0.000000 -0.000000
1.000000 0.000000 -0.000000
1.000000 0.000000 -0.000000
1.000000 0.000000 -0.000000
1.000000 0.000000 -0.000000
1.000000 0.000000 -0.000000
1.000000 0.000000 -0.000000
1.000000 0.000000 -0.000000
1.000000 0.000000 -0.000000
1.000000 0.000000 -0.000000
1.000000 0.000000 -0.000000
1.000000 0.000000 -0.000000
1.000000 0.000000 -0.000000
1.000000 0.000000 -0.000000
1.000000 0.000000 -0.000000
1.000000 0.000000 -0.000000
1.000000 0.000000 -0.000000
1.000000 0.000000 -0.000000
1.000000 0.000000 -0.000000
1.000000 0.000000 -0.000000
1.000000 0.000000 -0.000000
1.000000 0.000000 -0.000000
1.000000 0.000000 -0.000000
1.000000 0.000000 -0.000000
1.000000 0.000000 -0.000000
1.000000 0.000000 -0.000000
1.000000 0.000000 -0.000000
1.000000 0.000000 -0.000000
1.000000 0.000000 -0.000000
1.000000 0.000000 -0.000000
1.000000 0.000000 -0.000000
1.000000 0.000000 -0.000000
1.000000 0.000000 -0.000000
1.000000 0.000000 -0.000000
1.000000 0.000000 -0.000000
1.000000 0.000000 -0.000000
1.000000 0.000000 -0.000000
1.000000 0.000000 -0.000000
1.000000 0.000000 -0.000000
1.000000 0.000000 -0.000000
1.000000 0.000000 -0.000000
1.000000 0.000000 -0.000000
1.000000 0.000000 -0.000000
1.000000 0.000000 -0.000000
1.000000 0.000000 -0.000000
1.000000 0.000000 -0.000000
1.000000 0.000000 -0.000000
1.000000 0.000000 -0.000000
1.000000 0.000000 -0.000000
1.000000 0.000000 -0.000000
1.000000 0.000000 -0.000000
1.000000 0.000000 -0.000000
1.000000 0.000000 -0.000000
1.000000 0.000000 -0.000000
1.000000 0.000000 -0.000000
1.000000 0.000000 -0.000000
1.000000 0.000000 -0.000000
1.000000 0.000000 -0.000000
1.000000 0.000000 -0.000000
1.000000 0.000000 -0.000000
1.000000 0.000000 -0.000000
1.000000 0.000000 -0.000000
1.000000 0.000000 -0.000000
1.000000 0.000000 -0.000000
1.000000 0.000000 -0.000000
1.000000 0.000000 -0.000000
1.000000 0.000000 -0.000000
1.000000 0.000000 -0.000000
1.000000 0.000000 -0.000000
1.000000 0.000000 -0.000000
1.000000 0.000000 -0.000000
1.000000 0.000000 -0.000000
1.000000 0.000000 -0.000000
1.000000 0.000000 -0.000000
1.000000 0.000000 -0.000000
1.000000 0.000000 -0.000000
1.000000 0.000000 -0.000000
1.000000 0.000000 -0.000000
1.000000 0.000000 -0.000000
1.000000 0.000000 -0.000000
1.000000 0.000000 -0.000000
1.000000 0.000000 -0.000000
1.000000 0.000000 -0.000000
1.000000 0.000000 -0.000000
1.000000 0.000000 -0.000000
1.000000 0.000000 -0.000000
1.000000 0.000000 -0.000000
1.000000 0.000000 -0.000000
1.000000 0.000000 -0.000000
1.000000 0.000000 -0.000000
1.000000 0.000000 -0.000000
1.000000 0.000000 -0.000000
1.000000 0.000000 -0.000000
1.000000 0.000000 -0.000000
1.000000 0.000000 -0.000000
1.000000 0.000000 -0.000000
1.000000 0.000000 -0.000000
1.000000 0.000000 -0.000000
1.000000 0.000000 -0.000000
1.000000 0.000000 -0.000000
1.000000 0.000000 -0.000000
1.000000 0.000000 -0.000000
1.000000 0.000000 -0.000000
1.000000 0.000000 -0.000000
1.000000 0.000000 -0.000000
1.000000 0.000000 -0.000000
1.000000 0.000000 -0.000000
1.000000 0.000000 -0.000000
1.000000 0.000000 -0.000000
1.000000 0.000000 -0.000000
1.000000 0.000000 -0.000000
1.000000 0.000000 -0.000000
1.000000 0.000000 -0.000000
1.000000 0.000000 -0.000000
1.000000 0.000000 -0.000000
1.000000 0.000000 -0.000000
1.000000 0.000000 -0.000000
1.000000 0.000000 -0.000000
1.000000 0.000000 -0.000000
1.000000 0.000000 -0.000000
1.000000 0.000000 -0.000000
1.000000 0.000000 -0.000000
1.000000 0.000000 -0.000000
1.000000 0.000000 -0.000000
1.000000 0.000000 -0.000000
1.000000 0.000000 -0.000000
1.000000 0.000000 -0.000000
1.000000 0.000000 -0.000000
1.000000 0.000000 -0.000000
1.000000 0.000000 -0.000000
1.000000 0.000000 -0.000000
1.000000 0.000000 -0.000000
1.000000 0.000000 -0.000000
1.000000 0.000000 -0.000000
1.000000 0.000000 -0.000000
1.000000 0.000000 -0.000000
1.000000 0.000000 -0.000000
1.000000 0.000000 -0.000000
1.000000 0.000000 -0.000000
1.000000 0.000000 -0.000000
1.000000 0.000000 -0.000000
1.000000 0.000000 -0.000000
1.000000 0.000000 -0.000000
1.000000 0.000000 -0.000000
1.000000 0.000000 -0.000000
1.000000 0.000000 -0.000000
1.000000 0.000000 -0.000000
1.000000 0.000000 -0.000000
1.000000 0.000000 -0.000000
1.000000 0.000000 -0.000000
1.000000 0.000000 -0.000000
1.000000 0.000000 -0.000000
1.000000 0.000000 -0.000000
1.000000 0.000000 -0.000000
1.000000 0.000000 -0.000000
1.000000 0.000000 -0.000000
1.000000 0.000000 -0.000000
1.000000 0.000000 -0.000000
1.000000 0.000000 -0.000000
1.000000 0.000000 -0.000000
1.000000 0.000000 -0.000000
1.000000 0.000000 -0.000000
1.000000 0.000000 -0.000000
1.000000 0.000000 -0.000000
1.000000 0.000000 -0.000000
1.000000 0.000000 -0.000000
1.000000 0.000000 -0.000000
1.000000 0.000000 -0.000000
1.000000 0.000000 -0.000000
1.000000 0.000000 -0.000000
1.000000 0.000000 -0.000000
1.000000 0.000000 -0.000000
1.000000 0.000000 -0.000000
1.000000 0.000000 -0.000000
1.000000 0.000000 -0.000000
1.000000 0.000000 -0.000000
1.000000 0.000000 -0.000000
1.000000 0.000000 -0.000000
1.000000 0.000000 -0.000000
1.000000 0.000000 -0.000000
1.000000 0.000000 -0.000000
1.000000 0.000000 -0.000000
1.000000 0.000000 -0.000000
1.000000 0.000000 -0.000000
1.000000 0.000000 -0.000000
1.000000 0.000000 -0.000000
1.000000 0.000000 -0.000000
1.000000 0.000000 -0.000000
1.000000 0.000000 -0.000000
1.000000 0.000000 -0.000000
1.000000 0.000000 -0.000000
1.000000 0.000000 -0.000000
1.000000 0.000000 -0.000000
1.000000 0.000000 -0.000000
1.000000 0.000000 -0.000000
1.000000 0.000000 -0.000000
1.000000 0.000000 -0.000000
1.000000 0.000000 -0.000000
1.000000 0.000000 -0.000000
1.000000 0.000000 -0.000000
1.000000 0.000000 -0.000000
1.000000 0.000000 -0.000000
1.000000 0.000000 -0.000000
1.000000 0.000000 -0.000000
1.000000 0.000000 -0.000000
1.000000 0.000000 -0.000000
1.000000 0.000000 -0.000000
1.000000 0.000000 -0.000000
1.000000 0.000000 -0.000000
1.000000 0.000000 -0.000000
1.000000 0.000000 -0.000000
1.000000 0.000000 -0.000000
1.000000 0.000000 -0.000000
1.000000 0.000000 -0.000000
1.000000 0.000000 -0.000000
1.000000 0.000000 -0.000000
1.000000 0.000000 -0.000000
1.000000 0.000000 -0.000000
1.000000 0.000000 -0.000000
1.000000 0.000000 -0.000000
1.000000 0.000000 -0.000000
1.000000 0.000000 -0.000000
1.000000 0.000000 -0.000000
1.000000 0.000000 -0.000000
1.000000 0.000000 -0.000000
1.000000 0.000000 -0.000000
1.000000 0.000000 -0.000000
1.000000 0.000000 -0.000000
1.000000 0.000000 -0.000000
1.000000 0.000000 -0.000000
1.000000 0.000000 -0.000000
1.000000 0.000000 -0.000000
1.000000 0.000000 -0.000000
1.000000 0.000000 -0.000000
1.000000 0.000000 -0.000000
1.000000 0.000000 -0.000000
1.000000 0.000000 -0.000000
1.000000 0.000000 -0.000000
1.000000 0.000000 -0.000000
1.000000 0.000000 -0.000000
1.000000 0.000000 -0.000000
1.000000 0.000000 -0.000000
1.000000 0.000000 -0.000000
1.000000 0.000000 -0.000000
1.000000 0.000000 -0.000000
1.000000 0.000000 -0.000000
1.000000 0.000000 -0.000000
1.000000 0.000000 -0.000000
1.000000 0.000000 -0.000000
1.000000 0.000000 -0.000000
1.000000 0.000000 -0.000000
1.000000 0.000000 -0.000000
1.000000 0.000000 -0.000000
1.000000 0.000000 -0.000000
1.000000 0.000000 -0.000000
1.000000 0.000000 -0.000000
1.000000 0.000000 -0.000000
1.000000 0.000000 -0.000000
1.000000 0.000000 -0.000000
1.000000 0.000000 -0.000000
1.000000 0.000000 -0.000000
1.000000 0.000000 -0.000000
1.000000 0.000000 -0.000000
1.000000 0.000000 -0.000000
1.000000 0.000000 -0.000000
1.000000 0.000000 -0.000000
1.000000 0.000000 -0.000000
1.000000 0.000000 -0.000000
1.000000 0.000000 -0.000000
1.000000 0.000000 -0.000000
1.000000 0.000000 -0.000000
1.000000 0.000000 -0.000000
1.000000 0.000000 -0.000000
1.000000 0.000000 -0.000000
1.000000 0.000000 -0.000000
1.000000 0.000000 -0.000000
1.000000 0.000000 -0.000000
1.000000 0.000000 -0.000000
1.000000 0.000000 -0.000000