# vtk DataFile Version 3.1
director profile
ASCII
DATASET UNSTRUCTURED_GRID

POINTS 734 FLOAT
0.500000 0.761195 0.438542
1.105161 0.344528 1.288777
0.923241 1.378184 0.438542
1.528402 0.961517 0.872110
1.778242 1.575189 1.453090
3.944046 4.544676 0.813920
6.434492 4.158094 0.331165
8.663372 3.459514 0.910520
10.612953 3.382610 0.803926
11.448164 2.132507 0.389354
13.411463 2.135266 0.373460
13.577572 1.301971 0.373460
14.701575 0.952392 1.253020
16.191471 0.952417 1.238962
16.990601 0.416656 0.402378
17.658676 0.833523 0.402378
18.242899 0.416868 0.732738
18.919584 0.416868 0.330360
17.684971 0.671473 2.742226
16.854996 0.415868 4.575429
15.969957 1.137493 3.745361
16.025957 0.415868 4.157434
17.538153 0.840313 4.575429
18.260590 2.777894 4.486493
20.321201 4.043537 3.505702
21.641525 4.377373 2.284924
22.959648 3.337467 1.609667
24.315544 2.852934 0.574668
26.237997 2.370749 0.433211
28.459801 0.842405 0.403335
31.073162 0.416019 0.329998
32.988426 0.413096 0.403168
35.309002 0.600903 2.357450
35.868271 0.600903 2.821859
37.780865 1.171172 3.315423
37.625938 0.541261 1.634377
37.858227 0.629911 4.018674
36.133408 0.436526 4.232511
35.658356 0.770476 4.596689
35.333157 2.154559 4.384572
35.789032 2.690624 4.384572
33.703762 4.108367 4.586890
32.991608 4.575188 4.586890
34.319706 4.533180 4.185209
34.567551 3.884083 3.569781
33.951607 3.459270 3.971462
33.605679 3.333107 1.665540
33.286964 1.664138 1.644957
33.637321 0.413096 0.824581
33.868073 0.600903 2.287480
31.711700 0.650139 2.118065
32.267303 0.650139 2.616394
31.925697 1.064086 3.463227
34.093910 1.335886 3.962900
32.491829 1.465118 3.935546
31.718948 2.721285 4.357217
29.667789 2.706727 4.369090
27.650852 2.707327 4.369913
24.903658 3.408349 1.424500
24.230841 3.630383 0.991289
21.663960 4.585545 0.833207
22.318970 2.735392 0.618415
20.998768 4.585545 0.416623
20.240381 3.542369 1.005736
19.664627 4.583570 0.833209
18.999414 4.583570 0.416586
16.999008 4.583323 0.416623
16.793091 3.290557 1.575166
15.641305 3.757387 2.093166
14.204865 1.744382 2.444955
13.587601 0.330478 4.165123
11.651867 0.403843 4.166547
10.984540 0.403843 4.583428
10.601938 0.466268 2.057487
9.917957 1.010692 1.314726
8.661857 2.625273 0.507550
9.486963 3.877513 1.325091
9.009439 4.583089 0.402970
10.091566 3.093781 1.311476
10.096539 3.705246 2.569260
10.631536 3.988735 3.729151
11.012523 4.577912 4.582013
8.998732 4.597266 4.575657
6.339042 4.262031 4.528525
4.062514 3.254351 3.438516
4.367094 4.139939 4.572651
3.369636 3.911595 3.473406
3.977116 4.363672 2.217551
4.471681 1.607986 1.835122
5.870652 1.454895 1.017573
9.468692 0.544424 2.593663
11.415890 1.127090 2.877383
14.114932 1.004533 2.043951
16.422180 1.928860 2.821900
16.870869 2.643261 4.074420
16.437351 4.055920 3.754471
16.493351 4.584294 4.166543
16.868164 3.893099 2.824337
15.610096 2.366002 4.587928
15.520077 0.818555 4.582005
14.862724 2.689983 4.155368
14.022015 1.473015 4.149445
12.020048 0.935040 2.012815
13.076634 0.468772 0.789896
12.408552 0.468772 1.206779
12.575879 0.468772 2.039898
13.414926 0.468772 2.455019
14.705427 0.535761 2.085024
14.905823 1.997236 2.909422
14.198759 2.994382 2.029516
14.702136 2.618961 0.422051
15.535268 1.369047 0.836583
16.208284 0.535761 2.064391
18.118065 0.424446 4.103354
18.044811 1.095919 3.589847
16.403194 3.178860 2.413093
15.531105 3.869035 1.255239
14.332547 4.166570 0.416566
13.583817 4.489849 2.483436
12.746372 4.489849 2.898883
11.990786 2.845862 2.000648
10.083162 1.010692 2.148154
7.393517 0.640323 2.651985
5.623243 0.411787 4.260787
4.956031 0.411787 4.665540
6.929722 0.471920 4.595247
9.647735 0.422872 4.168291
11.457465 1.064665 3.738028
12.916637 0.330478 4.583119
14.849180 0.402688 4.582005
17.610027 2.346081 4.486493
20.227566 2.863789 4.339113
21.653955 2.868139 4.368415
23.674278 4.183566 4.583289
26.324734 4.375755 2.516435
29.144249 0.417759 0.403335
31.742949 0.416019 0.733167
34.257301 0.814706 0.421413
36.507080 1.505806 1.636097
38.996464 2.389913 3.351405
38.999008 3.415202 2.559168
39.576370 4.123941 2.845753
39.500000 4.144799 4.655473
38.572834 3.232638 3.335131
39.073826 3.524710 4.655473
39.500000 4.561466 4.238806
39.573826 2.691377 4.655473
39.573826 2.265318 4.054657
39.150063 1.453852 3.782036
39.576237 0.407275 2.532036
39.500000 0.416667 0.416667
38.922638 0.957928 0.963415
39.576756 2.679491 0.474037
39.422638 2.177677 1.669969
39.422638 2.572477 2.575442
39.076756 3.512825 0.474037
39.500000 4.145808 0.890703
39.076370 4.562475 1.523613
37.782082 3.671171 3.315950
37.472061 3.999925 4.636292
36.507111 3.642164 2.522801
35.935356 3.970918 3.619183
35.873756 4.350903 2.824372
37.335640 4.291261 2.521139
36.425720 3.186913 1.636509
37.254631 3.203026 1.001937
36.755241 4.544748 0.455189
35.651955 3.471824 1.089760
35.904110 4.120921 0.455189
35.314335 2.623434 0.634572
36.507874 2.300555 1.181320
37.336784 2.316668 0.546749
37.708931 1.521920 0.546749
38.499393 1.574944 0.546749
38.999393 2.387419 1.020785
37.703148 3.658278 1.634847
35.424423 4.576172 0.878940
33.956009 4.158238 0.423751
30.826195 4.583389 0.416762
29.991732 4.168919 0.416762
28.986591 2.502082 1.239002
26.981594 1.249297 2.321686
25.078220 0.418048 4.669128
22.450829 0.424749 4.173712
21.065918 0.472572 4.577511
19.683420 0.897018 4.527925
18.838734 2.566853 3.825605
18.987724 3.392408 3.408892
19.569901 4.373254 2.255608
18.256371 4.421474 2.819659
17.032276 3.477393 3.657714
17.161530 4.584294 4.583294
19.153606 4.597680 4.583287
20.967773 3.420910 3.290831
22.980337 3.337590 3.276373
22.963705 2.512339 3.693084
22.974461 1.239678 2.461729
23.650616 2.720620 4.324668
23.877266 1.037054 3.589998
23.745638 0.612305 2.314959
23.926790 0.612305 1.468758
23.926798 1.509543 0.574668
26.061031 1.522953 0.433211
26.626801 1.050401 0.855592
27.131218 0.424646 0.422381
27.948124 0.424646 0.825716
28.297924 2.301476 0.619913
26.827097 3.347092 1.469704
26.091934 4.268085 0.416580
26.087515 3.643840 0.849791
26.977594 2.521739 1.053123
25.851686 1.184366 2.623130
26.241999 0.625755 2.173419
26.591282 1.807908 2.771397
26.742222 3.057908 2.758547
27.996569 3.556867 1.036543
26.842020 4.597795 0.416580
27.506592 4.597795 0.833211
26.981926 3.749297 2.303035
26.328987 4.583710 4.166644
26.254339 3.892321 3.788736
26.249594 2.227247 4.622093
25.584160 2.646022 4.622092
24.393734 0.842797 4.669128
23.884295 0.424749 4.265330
23.134363 0.424749 4.596201
22.220186 2.372606 4.368415
20.224098 1.095826 3.444549
19.590790 1.520272 3.867038
18.743586 2.707015 0.589113
16.200142 3.452358 0.838673
14.998658 4.583274 0.416566
13.663132 4.583295 0.832917
11.663295 4.583252 0.830923
12.636550 3.119443 2.428733
13.601135 2.251184 4.567440
13.990589 3.593838 4.567440
14.168808 2.746526 4.567440
12.306618 3.428840 3.720934
13.081132 4.528169 4.583078
16.261105 2.797608 4.587928
17.464901 1.511786 4.061922
19.810261 3.641217 3.922400
23.008648 4.597912 4.583289
24.997932 4.585654 4.583312
27.650915 4.373542 2.286455
29.660334 2.711929 0.619090
30.322018 2.292419 0.619090
30.404726 1.459030 0.949088
31.046133 1.275391 2.333987
30.312344 0.625252 2.130104
28.304722 0.623542 2.273014
29.749060 0.625252 2.627491
29.007799 1.665059 3.316388
26.926765 1.599031 3.588187
26.265558 1.393537 4.218274
26.340206 0.834926 4.596181
25.759075 0.418048 4.265309
25.684425 0.976659 3.887402
25.606037 0.558611 3.109048
25.163801 1.796671 2.351617
25.246206 3.046671 2.713284
26.911530 3.265862 3.575337
27.651583 3.540449 3.953244
28.990105 3.331991 3.322504
29.663132 4.165209 4.583501
30.994461 4.582012 4.584117
30.325447 4.582012 4.167619
30.329666 3.957264 3.536708
31.045599 3.775391 2.477187
30.881111 3.358780 1.643069
29.662741 4.375252 2.285984
28.989271 3.748794 2.489134
29.137962 1.666553 1.642337
29.894409 1.043011 1.352423
30.400505 0.833778 0.329998
31.793646 1.066158 1.340384
31.875000 0.413947 4.106009
33.846066 0.734983 4.578328
34.504517 2.119066 4.384572
33.944740 2.610303 4.384572
35.001434 4.533180 4.598319
35.438267 3.504098 3.982891
36.187515 4.620015 4.234611
35.690422 4.153194 4.598319
34.503563 4.350903 2.743532
33.465706 4.582066 0.841602
32.817539 4.582066 0.417851
31.980774 4.165455 0.417851
28.830109 4.585529 0.416631
27.496086 3.971338 1.453124
24.986046 3.738060 2.257812
22.319769 3.975285 3.535007
20.884825 2.643481 3.707529
20.011845 1.041210 1.323127
19.590773 0.834824 0.330360
18.650270 1.040122 1.321851
18.733006 0.623254 2.099777
18.933968 0.424446 4.527925
20.316727 0.472572 4.105436
21.881433 0.897321 4.577511
22.429548 1.052122 3.542128
22.297955 0.627373 2.714571
22.978384 2.512153 1.193084
23.749561 2.357332 0.574668
25.495377 1.098306 0.904856
26.061144 0.625755 1.327237
24.918152 1.170916 2.837535
24.819088 1.401408 4.291221
24.399467 2.431319 3.946761
25.588175 3.477975 4.205404
26.085032 3.684366 2.971947
25.575745 4.046044 1.266412
24.915106 4.670289 0.416621
25.580160 4.670289 0.833201
25.672358 2.866391 0.433211
24.237871 4.268078 0.416621
22.321514 4.183333 0.416583
22.987957 4.597789 0.416583
23.646118 3.960093 1.407872
24.322613 4.362305 2.657890
24.323050 3.947959 3.491269
24.330080 4.585654 4.166601
25.662823 4.169364 4.583312
28.996393 4.583198 4.583501
31.667797 4.157199 4.584117
32.319332 4.575188 4.171008
31.699947 4.400139 2.275948
32.355259 4.400139 2.696076
33.175705 4.400139 2.285709
35.312675 4.350903 2.361831
34.797039 4.576172 0.423751
37.331993 3.911765 0.455189
37.780510 4.367017 1.088098
39.500000 4.583333 0.416667
38.653126 3.929491 1.106946
39.576370 4.562475 2.356946
39.076370 4.561466 3.621716
36.898235 4.620015 4.636292
37.859444 4.379910 4.019202
37.394699 3.291186 3.933041
38.650196 3.941377 4.038383
38.575764 3.220752 1.653695
36.568714 3.262179 3.317612
36.499512 2.448705 3.681320
37.325493 2.477713 4.296749
37.344669 1.607698 3.932570
36.518688 1.578691 3.317142
35.406200 1.371379 3.981261
35.018314 0.333950 4.596689
34.319862 0.333950 4.175018
34.483486 0.600903 2.731002
33.411491 1.652075 3.320117
33.283279 2.477262 3.741789
[...]
POINT_DATA 734
VECTORS director FLOAT
1.000000 0.000000 -0.000000
1.000000 0.000000 -0.000000
1.000000 0.000000 -0.000000
1.000000 0.000000 -0.000000
1.000000 0.000000 -0.000000
1.000000 0.000000 -0.000000
1.000000 0.000000 -0.000000
1.000000 0.000000 -0.000000
1.000000 0.000000 -0.000000
1.000000 0.000000 -0.000000
1.000000 0.000000 -0.000000
1.000000 0.000000 -0.000000
1.000000 0.000000 -0.000000
1.000000 0.000000 -0.000000
1.000000 0.000000 -0.000000
1.000000 0.000000 -0.000000
1.000000 0.000000 -0.000000
1.000000 0.000000 -0.000000
1.000000 0.000000 -0.000000
1.000000 0.000000 -0.000000
1.000000 0.000000 -0.000000
1.000000 0.000000 -0.000000
1.000000 0.000000 -0.000000
1.000000 0.000000 -0.000000
1.000000 0.000000 -0.000000
1.000000 0.000000 -0.000000
1.000000 0.000000 -0.000000
1.000000 0.000000 -0.000000
1.000000 0.000000 -0.000000
1.000000 0.000000 -0.000000
1.000000 0.000000 -0.000000
1.000000 0.000000 -0.000000
1.000000 0.000000 -0.000000
1.000000 0.000000 -0.000000
1.000000 0.000000 -0.000000
1.000000 0.000000 -0.000000
1.000000 0.000000 -0.000000
1.000000 0.000000 -0.000000
1.000000 0.000000 -0.000000
1.000000 0.000000 -0.000000
1.000000 0.000000 -0.000000
1.000000 0.000000 -0.000000
1.000000 0.000000 -0.000000
1.000000 0.000000 -0.000000
1.000000 0.000000 -0.000000
1.000000 0.000000 -0.000000
1.000000 0.000000 -0.000000
1.000000 0.000000 -0.000000
1.000000 0.000000 -0.000000
1.000000 0.000000 -0.000000
1.000000 0.000000 -0.000000
1.000000 0.000000 -0.000000
1.000000 0.000000 -0.000000
1.000000 0.000000 -0.000000
1.000000 0.000000 -0.000000
1.000000 0.000000 -0.000000
1.000000 0.000000 -0.000000
1.000000 0.000000 -0.000000
1.000000 0.000000 -0.000000
1.000000 0.000000 -0.000000
1.000000 0.000000 -0.000000
1.000000 0.000000 -0.000000
1.000000 0.000000 -0.000000
1.000000 0.000000 -0.000000
1.000000 0.000000 -0.000000
1.000000 0.000000 -0.000000
1.000000 0.000000 -0.000000
1.000000 0.000000 -0.000000
1.000000 0.000000 -0.000000
1.000000 0.000000 -0.000000
1.000000 0.000000 -0.000000
1.000000 0.000000 -0.000000
1.000000 0.000000 -0.000000
1.000000 0.000000 -0.000000
1.000000 0.000000 -0.000000
1.000000 0.000000 -0.000000
1.000000 0.000000 -0.000000
1.000000 0.000000 -0.000000
1.000000 0.000000 -0.000000
1.000000 0.000000 -0.000000
1.000000 0.000000 -0.000000
1.000000 0.000000 -0.000000
1.000000 0.000000 -0.000000
1.000000 0.000000 -0.000000
1.000000 0.000000 -0.000000
1.000000 0.000000 -0.000000
1.000000 0.000000 -0.000000
1.000000 0.000000 -0.000000
1.000000 0.000000 -0.000000
1.000000 0.000000 -0.000000
1.000000 0.000000 -0.000000
1.000000 0.000000 -0.000000
1.000000 0.000000 -0.000000
1.000000 0.000000 -0.000000
1.000000 0.000000 -0.000000
1.000000 0.000000 -0.000000
1.000000 0.000000 -0.000000
1.000000 0.000000 -0.000000
1.000000 0.000000 -0.000000
1.000000 0.000000 -0.000000
1.000000 0.000000 -0.000000
1.000000 0.000000 -0.000000
1.000000 0.000000 -0.000000
1.000000 0.000000 -0.000000
1.000000 0.000000 -0.000000
1.000000 0.000000 -0.000000
1.000000 0.000000 -0.000000
1.000000 0.000000 -0.000000
1.000000 0.000000 -0.000000
1.000000 0.000000 -0.000000
1.000000 0.000000 -0.000000
1.000000 0.000000 -0.000000
1.000000 0.000000 -0.000000
1.000000 0.000000 -0.000000
1.000000 0.000000 -0.000000
1.000000 0.000000 -0.000000
1.000000 0.000000 -0.000000
1.000000 0.000000 -0.000000
1.000000 0.000000 -0.000000
1.000000 0.000000 -0.000000
1.000000 0.000000 -0.000000
1.000000 0.000000 -0.000000
1.000000 0.000000 -0.000000
1.000000 0.000000 -0.000000
1.000000 0.000000 -0.000000
1.000000 0.000000 -0.000000
1.000000 0.000000 -0.000000
1.000000 0.000000 -0.000000
1.000000 0.000000 -0.000000
1.000000 0.000000 -0.000000
1.000000 0.000000 -0.000000
1.000000 0.000000 -0.000000
1.000000 0.000000 -0.000000
1.000000 0.000000 -0.000000
1.000000 0.000000 -0.000000
1.000000 0.000000 -0.000000
1.000000 0.000000 -0.000000
1.000000 0.000000 -0.000000
1.000000 0.000000 -0.000000
1.000000 0.000000 -0.000000
1.000000 0.000000 -0.000000
1.000000 0.000000 -0.000000
1.000000 0.000000 -0.000000
1.000000 0.000000 -0.000000
1.000000 0.000000 -0.000000
1.000000 0.000000 -0.000000
1.000000 0.000000 -0.000000
1.000000 0.000000 -0.000000
1.000000 0.000000 -0.000000
1.000000 0.000000 -0.000000
1.000000 0.000000 -0.000000
1.000000 0.000000 -0.000000
1.000000 0.000000 -0.000000
1.000000 0.000000 -0.000000
1.000000 0.000000 -0.000000
1.000000 0.000000 -0.000000
1.000000 0.000000 -0.000000
1.000000 0.000000 -0.000000
1.000000 0.000000 -0.000000
1.000000 0.000000 -0.000000
1.000000 0.000000 -0.000000
1.000000 0.000000 -0.000000
1.000000 0.000000 -0.000000
1.000000 0.000000 -0.000000
1.000000 0.000000 -0.000000
1.000000 0.000000 -0.000000
1.000000 0.000000 -0.000000
1.000000 0.000000 -0.000000
1.000000 0.000000 -0.000000
1.000000 0.000000 -0.000000
1.000000 0.000000 -0.000000
1.000000 0.000000 -0.000000
1.000000 0.000000 -0.000000
1.000000 0.000000 -0.000000
1.000000 0.000000 -0.000000
1.000000 0.000000 -0.000000
1.000000 0.000000 -0.000000
1.000000 0.000000 -0.000000
1.000000 0.000000 -0.000000
1.000000 0.000000 -0.000000
1.000000 0.000000 -0.000000
1.000000 0.000000 -0.000000
1.000000 0.000000 -0.000000
1.000000 0.000000 -0.000000
1.000000 0.000000 -0.000000
1.000000 0.000000 -0.000000
1.000000 0.000000 -0.000000
1.000000 0.000000 -0.000000
1.000000 0.000000 -0.000000
1.000000 0.000000 -0.000000
1.000000 0.000000 -0.000000
1.000000 0.000000 -0.000000
1.000000 0.000000 -0.000000
1.000000 0.000000 -0.000000
1.000000 0.000000 -0.000000
1.000000 0.000000 -0.000000
1.000000 0.000000 -0.000000
1.000000 0.000000 -0.000000
1.000000 0.000000 -0.000000
1.000000 0.000000 -0.000000
1.000000 0.000000 -0.000000
1.000000 0.000000 -0.000000
1.000000 0.000000 -0.000000
1.000000 0.000000 -0.000000
1.000000 0.000000 -0.000000
1.000000 0.000000 -0.000000
1.000000 0.000000 -0.000000
1.000000 0.000000 -0.000000
1.000000 0.000000 -0.000000
1.000000 0.000000 -0.000000
1.000000 0.000000 -0.000000
1.000000 0.000000 -0.000000
1.000000 0.000000 -0.000000
1.000000 0.000000 -0.000000
1.000000 0.000000 -0.000000
1.000000 0.000000 -0.000000
1.000000 0.000000 -0.000000
1.000000 0.000000 -0.000000
1.000000 0.000000 -0.000000
1.000000 0.000000 -0.000000
1.000000 0.000000 -0.000000
1.000000 0.000000 -0.000000
1.000000 0.000000 -0.000000
1.000000 0.000000 -0.000000
1.000000 0.000000 -0.000000
1.000000 0.000000 -0.000000
1.000000 0.000000 -0.000000
1.000000 0.000000 -0.000000
1.000000 0.000000 -0.000000
1.000000 0.000000 -0.000000
1.000000 0.000000 -0.000000
1.000000 0.000000 -0.000000
1.000000 0.000000 -0.000000
1.000000 0.000000 -0.000000
1.000000 0.000000 -0.000000
1.000000 0.000000 -0.000000
1.000000 0.000000 -0.000000
1.000000 0.000000 -0.000000
1.000000 0.000000 -0.000000
1.000000 0.000000 -0.000000
1.000000 0.000000 -0.000000
1.000000 0.000000 -0.000000
1.000000 0.000000 -0.000000
1.000000 0.000000 -0.000000
1.000000 0.000000 -0.000000
1.000000 0.000000 -0.000000
1.000000 0.000000 -0.000000
1.000000 0.000000 -0.000000
1.000000 0.000000 -0.000000
1.000000 0.000000 -0.000000
1.000000 0.000000 -0.000000
1.000000 0.000000 -0.000000
1.000000 0.000000 -0.000000
1.000000 0.000000 -0.000000
1.000000 0.000000 -0.000000
1.000000 0.000000 -0.000000
1.000000 0.000000 -0.000000
1.000000 0.000000 -0.000000
1.000000 0.000000 -0.000000
1.000000 0.000000 -0.000000
1.000000 0.000000 -0.000000
1.000000 0.000000 -0.000000
1.000000 0.000000 -0.000000
1.000000 0.000000 -0.000000
1.000000 0.000000 -0.000000
1.000000 0.000000 -0.000000
1.000000 0.000000 -0.000000
1.000000 0.000000 -0.000000
1.000000 0.000000 -0.000000
1.000000 0.000000 -0.000000
1.000000 0.000000 -0.000000
1.000000 0.000000 -0.000000
1.000000 0.000000 -0.000000
1.000000 0.000000 -0.000000
1.000000 0.000000 -0.000000
1.000000 0.000000 -0.000000
1.000000 0.000000 -0.000000
1.000000 0.000000 -0.000000
1.000000 0.000000 -0.000000
1.000000 0.000000 -0.000000
1.000000 0.000000 -0.000000
1.000000 0.000000 -0.000000
1.000000 0.000000 -0.000000
1.000000 0.000000 -0.000000
1.000000 0.000000 -0.000000
1.000000 0.000000 -0.000000
1.000000 0.000000 -0.000000
1.000000 0.000000 -0.000000
1.000000 0.000000 -0.000000
1.000000 0.000000 -0.000000
1.000000 0.000000 -0.000000
1.000000 0.000000 -0.000000
1.000000 0.000000 -0.000000
1.000000 0.000000 -0.000000
1.000000 0.000000 -0.000000
1.000000 0.000000 -0.000000
1.000000 0.000000 -0.000000
1.000000 0.000000 -0.000000
1.000000 0.000000 -0.000000
1.000000 0.000000 -0.000000
1.000000 0.000000 -0.000000
1.000000 0.000000 -0.000000
1.000000 0.000000 -0.000000
1.000000 0.000000 -0.000000
1.000000 0.000000 -0.000000
1.000000 0.000000 -0.000000
1.000000 0.000000 -0.000000
1.000000 0.000000 -0.000000
1.000000 0.000000 -0.000000
1.000000 0.000000 -0.000000
1.000000 0.000000 -0.000000
1.000000 0.000000 -0.000000
1.000000 0.000000 -0.000000
1.000000 0.000000 -0.000000
1.000000 0.000000 -0.000000
1.000000 0.000000 -0.000000
1.000000 0.000000 -0.000000
1.000000 0.000000 -0.000000
1.000000 0.000000 -0.000000
1.000000 0.000000 -0.000000
1.000000 0.000000 -0.000000
1.000000 0.000000 -0.000000
1.000000 0.000000 -0.000000
1.000000 0.000000 -0.000000
1.000000 0.000000 -0.000000
1.000000 0.000000 -0.000000
1.000000 0.000000 -0.000000
1.000000 0.000000 -0.000000
1.000000 0.000000 -0.000000
1.000000 0.000000 -0.000000
1.000000 0.000000 -0.000000
1.000000 0.000000 -0.000000
1.000000 0.000000 -0.000000
1.000000 0.000000 -0.000000
1.000000 0.000000 -0.000000
1.000000 0.000000 -0.000000
1.000000 0.000000 -0.000000
1.000000 0.000000 -0.000000
1.000000 0.000000 -0.000000
1.000000 0.000000 -0.000000
1.000000 0.000000 -0.000000
1.000000 0.000000 -0.000000
1.000000 0.000000 -0.000000
1.000000 0.000000 -0.000000
1.000000 0.000000 -0.000000
1.000000 0.000000 -0.000000
1.000000 0.000000 -0.000000
1.000000 0.000000 -0.000000
1.000000 0.000000 -0.000000
1.000000 0.000000 -0.000000
1.000000 0.000000 -0.000000
1.000000 0.000000 -0.000000
1.000000 0.000000 -0.000000
1.000000 0.000000 -0.000000
1.000000 0.000000 -0.000000
1.000000 0.000000 -0.000000
1.000000 0.000000 -0.000000
1.000000 0.000000 -0.000000
1.000000 0.000000 -0.000000
1.000000 0.000000 -0.000000
1.000000 0.000000 -0.000000
1.000000 0.000000 -0.000000
1.000000 0.000000 -0.000000
1.000000 0.000000 -0.000000
1.000000 0.000000 -0.000000
1.000000 0.000000 -0.000000
1.000000 0.000000 -0.000000
1.000000 0.000000 -0.000000
1.000000 0.000000 -0.000000
1.000000 0.000000 -0.000000
1.000000 0.000000 -0.000000
1.000000 0.000000 -0.000000
1.000000 0.000000 -0.000000
1.000000 0.000000 -0.000000
1.000000 0.000000 -0.000000
1.000000 0.000000 -0.000000
1.000000 0.000000 -0.000000
1.000000 0.000000 -0.000000
1.000000 0.000000 -0.000000
1.000000 0.000000 -0.000000
1.000000 0.000000 -0.000000
1.000000 0.000000 -0.000000
1.000000 0.000000 -0.000000
1.000000 0.000000 -0.000000
1.000000 0.000000 -0.000000
1.000000 0.000000 -0.000000
1.000000 0.000000 -0.000000
1.000000 0.000000 -0.000000
1.000000 0.000000 -0.000000
1.000000 0.000000 -0.000000
1.000000 0.000000 -0.000000
1.000000 0.000000 -0.000000
1.000000 0.000000 -0.000000
1.000000 0.000000 -0.000000
1.000000 0.000000 -0.000000
1.000000 0.000000 -0.000000
1.000000 0.000000 -0.000000
1.000000 0.000000 -0.000000
1.000000 0.000000 -0.000000
1.000000 0.000000 -0.000000
1.000000 0.000000 -0.000000
1.000000 0.000000 -0.000000
1.000000 0.000000 -0.000000
1.000000 0.000000 -0.000000
1.000000 0.000000 -0.000000
1.000000 0.000000 -0.000000
1.000000 0.000000 -0.000000
1.000000 0.000000 -0.000000
1.000000 0.000000 -0.000000
1.000000 0.000000 -0.000000
1.000000 0.000000 -0.000000
1.000000 0.000000 -0.000000
1.000000 0.000000 -0.000000
1.000000 0.000000 -0.000000
1.000000 0.000000 -0.000000
1.000000 0.000000 -0.000000
1.000000 0.000000 -0.000000
1.000000 0.000000 -0.000000
1.000000 0.000000 -0.000000
1.000000 0.000000 -0.000000
1.000000 0.000000 -0.000000
1.000000 0.000000 -0.000000
1.000000 0.000000 -0.000000
1.000000 0.000000 -0.000000
1.000000 0.000000 -0.000000
1.000000 0.000000 -0.000000
1.000000 0.000000 -0.000000
1.000000 0.000000 -0.000000
1.000000 0.000000 -0.000000
1.000000 0.000000 -0.000000
1.000000 0.000000 -0.000000
1.000000 0.000000 -0.000000
1.000000 0.000000 -0.000000
1.000000 0.000000 -0.000000
1.000000 0.000000 -0.000000
1.000000 0.000000 -0.000000
1.000000 0.000000 -0.000000
1.000000 0.000000 -0.000000
1.000000 0.000000 -0.000000
1.000000 0.000000 -0.000000
1.000000 0.000000 -0.000000
1.000000 0.000000 -0.000000
1.000000 0.000000 -0.000000
1.000000 0.000000 -0.000000
1.000000 0.000000 -0.000000
1.000000 0.000000 -0.000000
1.000000 0.000000 -0.000000
1.000000 0.000000 -0.000000
1.000000 0.000000 -0.000000
1.000000 0.000000 -0.000000
1.000000 0.000000 -0.000000
1.000000 0.000000 -0.000000
1.000000 0.000000 -0.000000
1.000000 0.000000 -0.000000
1.000000 0.000000 -0.000000
1.000000 0.000000 -0.000000
1.000000 0.000000 -0.000000
1.000000 0.000000 -0.000000
1.000000 0.000000 -0.000000
1.000000 0.000000 -0.000000
1.000000 0.000000 -0.000000
1.000000 0.000000 -0.000000
1.000000 0.000000 -0.000000
1.000000 0.000000 -0.000000
1.000000 0.000000 -0.000000
1.000000 0.000000 -0.000000
1.000000 0.000000 -0.000000
1.000000 0.000000 -0.000000
1.000000 0.000000 -0.000000
1.000000 0.000000 -0.000000
1.000000 0.000000 -0.000000
1.000000 0.000000 -0.000000
1.000000 0.000000 -0.000000
1.000000 0.000000 -0.000000
1.000000 0.000000 -0.000000
1.000000 0.000000 -0.000000
1.000000 0.000000 -0.000000
1.000000 0.000000 -0.000000
1.000000 0.000000 -0.000000
1.000000 0.000000 -0.000000
1.000000 0.000000 -0.000000
1.000000 0.000000 -0.000000
1.000000 0.000000 -0.000000
1.000000 0.000000 -0.000000
1.000000 0.000000 -0.000000
1.000000 0.000000 -0.000000
1.000000 0.000000 -0.000000
1.000000 0.000000 -0.000000
1.000000 0.000000 -0.000000
1.000000 0.000000 -0.000000
1.000000 0.000000 -0.000000
1.000000 0.000000 -0.000000
1.000000 0.000000 -0.000000
1.000000 0.000000 -0.000000
1.000000 0.000000 -0.000000
1.000000 0.000000 -0.000000
1.000000 0.000000 -0.000000
1.000000 0.000000 -0.000000
1.000000 0.000000 -0.000000
1.000000 0.000000 -0.000000
1.000000 0.000000 -0.000000
1.000000 0.000000 -0.000000
1.000000 0.000000 -0.000000
1.000000 0.000000 -0.000000
1.000000 0.000000 -0.000000
1.000000 0.000000 -0.000000
1.000000 0.000000 -0.000000
1.000000 0.000000 -0.000000
1.000000 0.000000 -0.000000
1.000000 0.000000 -0.000000
1.000000 0.000000 -0.000000
1.000000 0.000000 -0.000000
1.000000 0.000000 -0.000000
1.000000 0.000000 -0.000000
1.000000 0.000000 -0.000000
1.000000 0.000000 -0.000000
1.000000 0.000000 -0.000000
1.000000 0.000000 -0.000000
1.000000 0.000000 -0.000000
1.000000 0.000000 -0.000000
1.000000 0.000000 -0.000000
1.000000 0.000000 -0.000000
1.000000 0.000000 -0.000000
1.000000 0.000000 -0.000000
1.000000 0.000000 -0.000000
1.000000 0.000000 -0.000000
1.000000 0.000000 -0.000000
1.000000 0.000000 -0.000000
1.000000 0.000000 -0.000000
1.000000 0.000000 -0.000000
1.000000 0.000000 -0.000000
1.000000 0.000000 -0.000000
1.000000 0.000000 -0.000000
1.000000 0.000000 -0.000000
1.000000 0.000000 -0.000000
1.000000 0.000000 -0.000000
1.000000 0.000000 -0.000000
1.000000 0.000000 -0.000000
1.000000 0.000000 -0.000000
1.000000 0.000000 -0.000000
1.000000 0.000000 -0.000000
1.000000 0.000000 -0.000000
1.000000 0.000000 -0.000000
1.000000 0.000000 -0.000000
1.000000 0.000000 -0.000000
1.000000 0.000000 -0.000000
1.000000 0.000000 -0.000000
1.000000 0.000000 -0.000000
1.000000 0.000000 -0.000000
1.000000 0.000000 -0.000000
1.000000 0.000000 -0.000000
1.000000 0.000000 -0.000000
1.000000 0.000000 -0.000000
1.000000 0.000000 -0.000000
1.000000 0.000000 -0.000000
1.000000 0.000000 -0.000000
1.000000 0.000000 -0.000000
1.000000 0.000000 -0.000000
1.000000 0.000000 -0.000000
1.000000 0.000000 -0.000000
1.000000 0.000000 -0.000000
1.000000 0.000000 -0.000000
1.000000 0.000000 -0.000000
1.000000 0.000000 -0.000000
1.000000 0.000000 -0.000000
1.000000 0.000000 -0.000000
1.000000 0.000000 -0.000000
1.000000 0.000000 -0.000000
1.000000 0.000000 -0.000000
1.000000 0.000000 -0.000000
1.000000 0.000000 -0.000000
1.000000 0.000000 -0.000000
1.000000 0.000000 -0.000000
1.000000 0.000000 -0.000000
1.000000 0.000000 -0.000000
1.000000 0.000000 -0.000000
1.000000 0.000000 -0.000000
1.000000 0.000000 -0.000000
1.000000 0.000000 -0.000000
1.000000 0.000000 -0.000000
1.000000 0.000000 -0.000000
1.000000 0.000000 -0.000000
1.000000 0.000000 -0.000000
1.000000 0.000000 -0.000000
1.000000 0.000000 -0.000000
1.000000 0.000000 -0.000000
1.000000 0.000000 -0.000000
1.000000 0.000000 -0.000000
1.000000 0.000000 -0.000000
1.000000 0.000000 -0.000000
1.000000 0.000000 -0.000000
1.000000 0.000000 -0.000000
1.000000 0.000000 -0.000000
1.000000 0.000000 -0.000000
1.000000 0.000000 -0.000000
1.000000 0.000000 -0.000000
1.000000 0.000000 -0.000000
1.000000 0.000000 -0.000000
1.000000 0.000000 -0.000000
1.000000 0.000000 -0.000000
1.000000 0.000000 -0.000000
1.000000 0.000000 -0.000000
1.000000 0.000000 -0.000000
1.000000 0.000000 -0.000000
1.000000 0.000000 -0.000000
1.000000 0.000000 -0.000000
1.000000 0.000000 -0.000000
1.000000 0.000000 -0.000000
1.000000 0.000000 -0.000000
1.000000 0.000000 -0.000000
1.000000 0.000000 -0.000000
1.000000 0.000000 -0.000000
1.000000 0.000000 -0.000000
1.000000 0.000000 -0.000000
1.000000 0.000000 -0.000000
1.000000 0.000000 -0.000000
1.000000 0.000000 -0.000000
1.000000 0.000000 -0.000000
1.000000 0.000000 -0.000000
1.000000 0.000000 -0.000000
1.000000 0.000000 -0.000000
1.000000 0.000000 -0.000000
1.000000 0.000000 -0.000000
1.000000 0.000000 -0.000000
1.000000 0.000000 -0.000000
1.000000 0.000000 -0.000000
1.000000 0.000000 -0.000000
1.000000 0.000000 -0.000000
1.000000 0.000000 -0.000000
1.000000 0.000000 -0.000000
1.000000 0.000000 -0.000000
1.000000 0.000000 -0.000000
1.000000 0.000000 -0.000000
1.000000 0.000000 -0.000000
1.000000 0.000000 -0.000000
1.000000 0.000000 -0.000000
1.000000 0.000000 -0.000000
1.000000 0.000000 -0.000000
1.000000 0.000000 -0.000000
1.000000 0.000000 -0.000000
1.000000 0.000000 -0.000000
1.000000 0.000000 -0.000000
1.000000 0.000000 -0.000000
1.000000 0.000000 -0.000000
1.000000 0.000000 -0.000000
1.000000 0.000000 -0.000000
1.000000 0.000000 -0.000000
1.000000 0.000000 -0.000000
1.000000 0.000000 -0.000000
1.000000 0.000000 -0.000000
1.000000 0.000000 -0.000000
1.000000 0.000000 -0.000000
1.000000 0.000000 -0.000000
1.000000 0.000000 -0.000000
1.000000 0.000000 -0.000000
1.000000 0.000000 -0.000000
1.000000 0.000000 -0.000000
1.000000 0.000000 -0.000000
1.000000 0.000000 -0.000000
1.000000 0.000000 -0.000000
1.000000 0.000000 -0.000000
1.000000 0.000000 -0.000000
1.000000 0.000000 -0.000000
1.000000 0.000000 -0.000000
1.000000 0.000000 -0.000000
1.000000 0.000000 -0.000000
1.000000 0.000000 -0.000000
1.000000 0.000000 -0.000000
1.000000 0.000000 -0.000000
1.000000 0.000000 -0.000000
1.000000 0.000000 -0.000000
1.000000 0.000000 -0.000000
1.000000 0.000000 -0.000000
1.000000 0.000000 -0.000000
1.000000 0.000000 -0.000000
1.000000 0.000000 -0.000000
1.000000 0.000000 -0.000000
1.000000 0.000000 -0.000000
1.000000 0.000000 -0.000000
1.000000 0.000000 -0.000000
1.000000 0.000000 -0.000000
1.000000 0.000000 -0.000000
1.000000 0.000000 -0.000000
1.000000 0.000000 -0.000000
1.000000 0.000000 -0.000000
1.000000 0.000000 -0.000000
1.000000 0.000000 -0.000000
1.000000 0.000000 -0.000000
1.000000 0.000000 -0.000000
1.000000 0.000000 -0.000000
1.000000 0.000000 -0.000000
1.000000 0.000000 -0.000000
1.000000 0.000000 -0.000000
1.000000 0.000000 -0.000000
1.000000 0.000000 -0.000000
1.000000 0.000000 -0.000000
1.000000 0.000000 -0.000000
1.000000 0.000000 -0.000000
1.000000 0.000000 -0.000000
1.000000 0.000000 -0.000000
1.000000 0.000000 -0.000000
1.000000 0.000000 -0.000000
1.000000 0.000000 -0.000000
1.000000 0.000000 -0.000000
1.000000 0.000000 -0.000000
1.000000 0.000000 -0.000000
1.000000 0.000000 -0.000000
1.000000 0.000000 -0.000000
1.000000 0.000000 -0.000000
1.000000 0.000000 -0.000000
1.000000 0.000000 -0.000000
1.000000 0.000000 -0.000000