# vtk DataFile Version 3.1
director profile
ASCII
DATASET UNSTRUCTURED_GRID

POINTS 20008 FLOAT
4.283870 3.266038 2.760773
5.706145 5.039966 0.252791
5.223014 0.887812 2.451308
0.654596 0.179551 0.160008
1.175569 4.284358 2.628198
0.167269 0.955988 0.314649
0.153791 2.050205 0.350499
2.186993 1.827637 0.666677
1.336536 5.232028 0.244779
3.170383 4.579366 1.792591
1.600506 4.075266 1.924232
2.526717 0.483644 0.819350
1.077755 0.740868 0.460159
1.371630 0.223533 0.160008
1.089327 9.807998 0.446667
2.968853 6.067518 0.686917
2.592853 0.295674 1.208172
4.101393 0.172440 2.573462
7.110085 0.292201 1.538206
3.098172 0.497391 1.927655
1.036973 1.095697 2.550151
2.862449 3.803968 2.365591
7.124907 7.978994 0.380725
2.827733 6.074866 2.750454
0.991772 1.791814 0.300151
0.337821 1.809748 0.165454
0.482372 0.824047 1.596861
0.193516 0.486262 1.796710
1.736556 3.226266 1.161787
0.288857 1.278860 1.573334
2.366283 3.029303 2.758094
1.722673 3.298134 1.911787
0.267462 2.800396 2.635590
4.903972 3.841836 2.429531
0.898743 4.862438 0.803898
1.478024 3.647357 0.309257
1.038898 0.403083 0.160008
0.353481 0.282108 2.056929
1.005254 0.337785 1.846845
3.987543 1.518439 1.052253
4.485910 2.834250 0.619191
4.752451 1.663832 0.393014
0.929204 6.543456 0.993372
1.755063 0.633459 1.477123
0.159965 0.282108 2.411950
0.621918 0.807218 2.212101
0.153791 2.437200 0.185045
0.160824 5.907134 0.368246
0.379784 1.089854 2.821212
0.288857 1.068376 0.945319
1.267940 4.065164 0.309257
0.202178 6.925226 2.638326
2.139803 9.617235 1.764087
1.604004 8.701835 0.232610
1.650121 1.839891 0.665903
1.642945 0.833624 1.912052
2.179720 4.421382 1.908082
2.673427 0.187969 0.203355
0.390997 4.946239 1.778707
0.689323 4.246897 1.401033
1.631551 5.515985 0.561025
0.373625 2.684497 0.185045
0.159965 0.532108 2.661950
2.007496 0.411502 0.315070
3.496639 2.868396 0.241378
4.766075 5.216426 0.252791
1.193202 0.725275 2.361128
1.840415 1.229128 0.601076
0.451754 2.399959 1.299947
0.333062 0.719433 2.661950
0.945978 0.187325 2.651715
1.929248 2.039248 0.365752
3.388528 1.406277 2.159239
3.156661 0.550602 1.463344
2.571961 1.260529 0.300925
0.333062 0.437325 2.840738
0.583062 0.187325 2.840738
2.446852 0.295674 1.548044
6.860823 4.623989 2.145319
7.344172 1.119708 0.276555
5.476973 0.148178 0.294237
2.497201 1.609702 0.300925
0.719216 2.550414 2.058586
0.642338 0.619893 1.857080
1.827965 1.665941 1.716828
1.063074 6.279009 2.723785
0.809139 4.135142 0.490179
1.154346 0.387490 2.810977
1.839819 2.434076 0.365752
3.057808 0.361435 0.203355
1.008073 2.177715 1.981039
4.886171 4.115304 2.059482
5.943830 0.246155 2.541091
5.072955 0.663558 1.618857
0.969914 2.873511 0.860055
1.974466 0.699343 2.361901
0.206687 1.402529 2.821212
4.917980 3.915479 1.176523
3.178507 1.175694 2.086614
3.506281 1.545919 2.623550
6.589763 4.035654 1.813516
1.622078 5.895751 0.561025
4.995580 0.465911 0.779617
6.228627 0.826170 1.769361
2.047112 8.328320 0.602828
0.911835 6.863469 2.145712
4.087120 6.482643 1.614765
7.823262 3.735385 1.135325
2.639985 2.537807 1.247397
0.351298 1.164078 0.165454
1.696170 8.655033 2.684100
1.627318 9.502403 0.803715
3.680336 8.883019 2.154201
4.187004 2.977623 2.517262
2.895838 5.368646 2.163778
6.174080 7.950436 0.756176
10.817540 3.434675 2.346983
3.999880 6.714775 2.739973
8.003381 9.751271 0.405176
6.766067 5.520163 2.341438
5.381965 5.269031 0.252791
1.017542 2.853539 1.802708
0.474150 2.087668 2.815136
5.095387 5.014692 2.132742
0.244904 4.553773 0.180921
2.580768 2.152835 1.548321
4.391046 5.508770 1.001477
7.506813 1.847322 2.340671
7.824937 1.769705 2.620182
7.401988 1.628047 2.340671
4.827991 2.894625 0.377813
8.630217 4.023520 0.665052
4.314681 0.808770 0.904074
4.226270 1.197681 2.178703
7.872491 1.457798 0.370182
10.759649 2.236038 0.380785
5.060988 4.331775 0.379951
4.995045 9.543536 0.317528
1.982362 5.990625 0.316247
0.262842 6.064119 0.968602
0.565789 3.064005 2.007410
4.146371 5.703197 0.748686
0.202037 7.913762 2.619585
5.167799 5.401000 2.130806
6.436733 3.397504 0.635398
10.108974 1.855103 1.673717
11.881336 0.751419 2.473035
14.293036 1.285444 0.639549
7.807546 4.205825 2.635141
3.143387 1.481609 0.960164
0.495544 1.751445 1.986738
6.416451 3.136114 2.135398
3.733097 8.487445 0.614985
0.160824 5.145557 0.396156
4.535210 9.398888 0.963736
0.564236 3.803152 0.677392
0.271549 6.680090 1.967689
0.693453 0.680767 0.609354
0.894402 2.147669 0.850948
3.677424 0.254927 1.202323
2.897456 9.576997 0.204387
4.719546 9.785253 0.592027
1.193768 9.267228 1.373766
2.080867 3.289981 0.852529
7.458349 0.845224 1.914368
6.332788 4.590023 1.064078
7.656598 2.818599 1.220673
5.859827 5.574583 0.934079
6.662563 6.918088 0.677333
7.021218 0.462331 0.745429
9.409819 2.845604 2.691749
5.135362 7.844415 2.625450
9.227386 8.855086 2.755183
3.800827 5.642001 0.370671
2.615245 2.932961 1.252660
4.367549 3.566127 1.509915
4.810752 5.900259 2.628016
4.436426 5.591336 2.628016
9.882256 6.089284 2.620990
1.867857 7.998261 1.920894
0.139623 9.457594 2.851722
3.725585 3.028961 2.275357
2.716781 2.834223 2.758094
4.184762 2.201425 2.756490
2.470437 1.332351 2.550925
2.336245 3.341873 2.494872
2.996352 2.836535 1.260458
4.809921 4.580020 0.379951
5.105105 5.137104 0.252791
2.231436 3.025559 0.365752
4.094927 0.351564 0.225371
0.288857 1.359757 1.167576
0.510813 4.243591 0.180921
0.219834 2.962056 0.372259
0.298326 4.181637 1.203756
2.117977 0.203504 2.604203
6.330575 3.855511 0.529344
3.464967 1.784551 0.659239
0.430843 0.204154 1.135507
1.024457 1.112390 0.300151
2.240816 0.499178 2.155128
3.770836 0.629083 2.273598
0.689323 4.401806 1.203707
4.094608 0.254927 1.766691
6.231380 1.185652 0.536564
1.163320 9.572823 1.673498
0.297855 9.754251 1.264793
0.207694 3.861767 2.259934
2.223160 9.311641 1.123064
3.412567 8.557961 2.764654
2.888939 8.389017 2.384872
9.805389 8.036826 2.723798
1.791982 8.159845 1.403504
1.178313 5.075240 2.628198
2.872298 0.405220 2.793227
0.689323 4.201396 1.626935
7.238379 3.890901 0.269352
9.604639 2.107439 0.814217
10.590888 2.872517 1.669517
1.390937 0.561317 0.775230
6.814661 4.455586 0.269352
8.022171 5.240035 0.785960
14.035395 1.417086 2.616228
10.130004 0.202667 2.645150
9.841784 0.211415 0.395212
6.109123 2.482265 0.632217
2.212423 2.036375 1.924771
5.890583 1.797074 0.632234
0.653839 4.884657 1.139228
0.495544 1.445127 1.992814
1.222282 1.440125 0.300151
5.847870 0.148178 0.501889
7.069800 0.170130 0.468874
3.838934 6.978880 2.366078
1.481006 7.576054 0.366576
0.719700 0.541939 1.185658
3.915935 2.954608 0.241378
2.584568 3.180008 0.744566
1.935398 5.072557 2.628198
3.337628 2.160593 2.623550
1.823551 4.297873 0.980562
1.393028 4.309608 0.687455
2.534654 2.366730 0.739302
3.216092 4.737788 0.293107
3.314505 0.254927 1.365775
4.780584 0.375745 1.944401
2.293815 4.702209 0.293107
8.477266 3.018397 0.374778
7.521673 1.988439 0.370182
9.189606 1.872388 2.622468
7.982249 2.581737 2.345267
8.185169 1.288031 0.370182
4.562966 2.443137 1.012205
7.457111 0.688778 1.425591
0.193516 0.204154 1.475499
4.035169 2.218878 1.514431
11.189646 4.164648 1.641226
8.098637 6.856215 0.249328
5.998772 5.596988 2.625968
2.214881 9.491608 0.436997
7.858269 9.564457 0.405176
11.341241 6.823103 0.330309
13.877522 7.723825 0.384441
12.597655 5.814670 2.149696
6.024337 6.717709 2.555321
13.026436 7.311870 2.035867
9.306609 8.199080 0.303793
8.638010 8.685471 1.189998
7.672535 0.449148 0.261223
4.042887 0.254927 1.406508
3.196665 3.805269 0.378814
4.221774 2.674337 0.241378
2.464676 3.197383 1.739438
2.097662 3.114802 2.110624
3.631012 2.319983 2.380040
7.895951 2.362719 1.215448
6.361768 7.159857 2.247462
8.031918 9.484205 2.464579
9.632621 5.352207 2.621881
0.219834 3.350077 0.187214
2.465438 4.397078 0.293107
2.850194 4.421620 0.293107
1.996239 4.666718 0.671305
0.668570 5.059867 0.425700
1.249171 8.861688 0.232610
2.969741 4.123280 0.671921
4.419629 3.270906 0.619191
5.723138 6.887006 2.180771
9.187016 2.378518 1.188995
9.510470 0.211415 0.175655
8.977542 0.585639 0.829765
8.198560 0.228215 2.577978
6.420684 4.483459 1.814078
4.404959 2.046117 0.634391
4.533114 1.208666 2.643014
2.891719 1.953526 1.932569
3.214811 1.021112 0.285689
5.763760 0.435991 0.761898
3.462257 4.312663 1.051872
5.583351 5.665533 2.253983
8.612605 0.773624 1.584638
4.410864 2.451149 1.518694
1.907866 1.628279 0.966828
4.646072 4.520203 2.629951
6.973919 2.502423 2.720489
8.306121 6.954195 2.757011
10.256112 7.498130 2.475866
11.364555 8.236602 0.266956
11.303229 5.387734 0.665812
11.625397 4.032877 2.395020
11.309187 1.453216 2.687263
7.373953 0.741349 0.537778
3.662589 0.428393 0.714415
0.588180 4.881927 2.193377
0.380371 6.001664 0.368246
1.252679 5.475528 2.351983
0.271549 5.995599 1.548544
6.320037 2.808418 1.757623
2.866190 7.671367 2.764654
5.545825 9.758284 0.171893
0.929021 9.581895 0.191411
0.879277 9.021480 1.490092
2.797481 7.676879 1.356176
5.117792 1.590137 0.653023
0.200718 5.238667 2.565179
2.403878 0.187969 0.518425
4.867008 0.641657 2.286862
4.817443 1.536214 2.643014
2.433999 3.444430 1.231343
3.795641 2.220493 0.614928
5.145784 4.140556 0.798709
1.582669 1.440739 0.300151
3.593550 3.141237 1.904171
3.353867 2.460993 2.138134
0.288857 1.767581 1.022101
0.207694 3.897674 2.631686
0.305276 8.392418 1.721957
0.507313 7.986585 2.303685
2.621228 4.324852 2.279884
4.094465 5.695440 2.248686
5.454512 6.579990 1.808787
1.026346 5.353323 0.244779
8.177893 4.397276 0.385141
5.458519 4.754996 1.427467
6.517901 5.808135 1.896758
5.223528 9.612797 2.797213
4.826592 9.103610 2.085303
7.985024 6.638132 2.757011
8.758773 6.340717 0.249328
10.500623 0.241327 0.219556
9.187724 1.173148 0.372468
8.744239 2.089656 1.117428
2.130335 0.707176 0.615995
3.738307 2.602861 2.756490
6.536484 0.145021 2.732797
5.281610 0.614089 0.554247
5.749339 0.287813 1.595338
10.490078 5.177858 1.037693
6.522277 9.719340 0.167491
3.890448 7.648202 1.752441
3.636807 3.747120 2.389586
5.765147 4.468575 0.671549
5.048350 1.193481 0.653023
0.237328 0.367586 0.889722
1.964041 4.058678 1.089141
4.597287 2.134203 2.756490
[...]
POINT_DATA 20008
VECTORS director FLOAT
0.997777 0.000000 0.066636
0.071755 0.000000 0.997422
0.970520 0.000000 0.241022
0.018828 0.000000 0.999823
0.989879 0.000000 0.141917
0.106939 0.000000 0.994266
0.127271 0.000000 0.991868
0.303329 0.000000 0.952886
0.067191 0.000000 0.997740
0.814106 0.000000 0.580716
0.855423 0.000000 0.517929
0.385155 0.000000 0.922852
0.189098 0.000000 0.981958
0.018828 0.000000 0.999823
0.181527 0.000000 0.983386
0.314324 0.000000 0.949316
0.578941 0.000000 0.815369
0.984959 0.000000 0.172786
0.721461 0.000000 0.692455
0.856434 0.000000 0.516256
0.982572 0.000000 0.185883
0.957563 0.000000 0.288224
0.144373 0.000000 0.989523
0.997367 0.000000 0.072514
0.098703 0.000000 0.995117
0.021938 0.000000 0.999759
0.744248 0.000000 0.667904
0.815470 0.000000 0.578799
0.557141 0.000000 0.830418
0.735207 0.000000 0.677843
0.997674 0.000000 0.068162
0.851721 0.000000 0.523996
0.990469 0.000000 0.137737
0.967447 0.000000 0.253073
0.376996 0.000000 0.926215
0.103877 0.000000 0.994590
0.018828 0.000000 0.999823
0.892181 0.000000 0.451679
0.831705 0.000000 0.555217
0.504139 0.000000 0.863622
0.277380 0.000000 0.960760
0.151314 0.000000 0.988486
0.474819 0.000000 0.880083
0.696871 0.000000 0.717196
0.964858 0.000000 0.262774
0.928654 0.000000 0.370947
0.033122 0.000000 0.999451
0.137317 0.000000 0.990527
0.999483 0.000000 0.032163
0.450492 0.000000 0.892781
0.103877 0.000000 0.994590
0.990683 0.000000 0.136189
0.804545 0.000000 0.593891
0.060255 0.000000 0.998183
0.302908 0.000000 0.953020
0.851800 0.000000 0.523867
0.850610 0.000000 0.525797
0.043570 0.000000 0.999050
0.809476 0.000000 0.587153
0.665058 0.000000 0.746792
0.245318 0.000000 0.969443
0.033122 0.000000 0.999451
0.992430 0.000000 0.122811
0.107178 0.000000 0.994240
0.065252 0.000000 0.997869
0.071755 0.000000 0.997422
0.956825 0.000000 0.290664
0.267426 0.000000 0.963579
0.620862 0.000000 0.783920
0.992430 0.000000 0.122811
0.991695 0.000000 0.128610
0.135907 0.000000 0.990722
0.917034 0.000000 0.398809
0.691206 0.000000 0.722657
0.099143 0.000000 0.995073
0.999779 0.000000 0.021016
0.999779 0.000000 0.021016
0.725340 0.000000 0.688390
0.913835 0.000000 0.406086
0.085285 0.000000 0.996357
0.095342 0.000000 0.995445
0.099143 0.000000 0.995073
0.892608 0.000000 0.450834
0.834937 0.000000 0.550346
0.788226 0.000000 0.615386
0.996147 0.000000 0.087696
0.205904 0.000000 0.978572
0.999278 0.000000 0.038005
0.135907 0.000000 0.990722
0.043570 0.000000 0.999050
0.871773 0.000000 0.489910
0.892838 0.000000 0.450378
0.981597 0.000000 0.190964
0.752579 0.000000 0.658502
0.406502 0.000000 0.913650
0.956954 0.000000 0.290241
0.999483 0.000000 0.032163
0.564110 0.000000 0.825700
0.899709 0.000000 0.436490
0.989498 0.000000 0.144544
0.820987 0.000000 0.570946
0.245318 0.000000 0.969443
0.364117 0.000000 0.931353
0.806330 0.000000 0.591465
0.268390 0.000000 0.963310
0.913926 0.000000 0.405881
0.751038 0.000000 0.660259
0.544529 0.000000 0.838742
0.597060 0.000000 0.802197
0.021938 0.000000 0.999759
0.993904 0.000000 0.110248
0.376899 0.000000 0.926254
0.915883 0.000000 0.401446
0.978908 0.000000 0.204304
0.918065 0.000000 0.396431
0.351616 0.000000 0.936144
0.954446 0.000000 0.298383
0.996915 0.000000 0.078483
0.158176 0.000000 0.987411
0.953496 0.000000 0.301404
0.071755 0.000000 0.997422
0.817448 0.000000 0.576003
0.999365 0.000000 0.035631
0.910894 0.000000 0.412640
0.030768 0.000000 0.999527
0.725449 0.000000 0.688276
0.478888 0.000000 0.877876
0.953364 0.000000 0.301822
0.989218 0.000000 0.146447
0.953364 0.000000 0.301822
0.142727 0.000000 0.989762
0.302445 0.000000 0.953167
0.429339 0.000000 0.903143
0.921410 0.000000 0.388591
0.138412 0.000000 0.990375
0.144407 0.000000 0.989518
0.143936 0.000000 0.989587
0.108574 0.000000 0.994088
0.107846 0.000000 0.994168
0.462322 0.000000 0.886712
0.879052 0.000000 0.476726
0.347609 0.000000 0.937640
0.989168 0.000000 0.146785
0.910438 0.000000 0.413646
0.286261 0.000000 0.958152
0.772837 0.000000 0.634604
0.973436 0.000000 0.228961
0.288531 0.000000 0.957471
0.990434 0.000000 0.137991
0.458044 0.000000 0.888929
0.873363 0.000000 0.487070
0.911519 0.000000 0.411257
0.275071 0.000000 0.961424
0.153087 0.000000 0.988213
0.459856 0.000000 0.887993
0.309155 0.000000 0.951012
0.868012 0.000000 0.496543
0.271978 0.000000 0.962303
0.401745 0.000000 0.915752
0.576215 0.000000 0.817298
0.044159 0.000000 0.999025
0.262443 0.000000 0.964948
0.653349 0.000000 0.757057
0.402571 0.000000 0.915389
0.852492 0.000000 0.522740
0.509960 0.000000 0.860198
0.584747 0.000000 0.811215
0.444751 0.000000 0.895654
0.309123 0.000000 0.951022
0.345864 0.000000 0.938285
0.994376 0.000000 0.105905
0.989655 0.000000 0.143470
0.997560 0.000000 0.069821
0.138689 0.000000 0.990336
0.599468 0.000000 0.800399
0.710180 0.000000 0.704021
0.989864 0.000000 0.142020
0.989864 0.000000 0.142020
0.989286 0.000000 0.145991
0.854434 0.000000 0.519559
0.999891 0.000000 0.014744
0.941446 0.000000 0.337165
0.997674 0.000000 0.068162
0.997611 0.000000 0.069076
0.982654 0.000000 0.185449
0.976215 0.000000 0.216804
0.603027 0.000000 0.797721
0.143936 0.000000 0.989587
0.071755 0.000000 0.997422
0.135907 0.000000 0.990722
0.056128 0.000000 0.998424
0.559884 0.000000 0.828571
0.030768 0.000000 0.999527
0.139587 0.000000 0.990210
0.576883 0.000000 0.816827
0.987841 0.000000 0.155468
0.227739 0.000000 0.973722
0.299279 0.000000 0.954166
0.544616 0.000000 0.838686
0.098703 0.000000 0.995117
0.916095 0.000000 0.400961
0.941107 0.000000 0.338110
0.576860 0.000000 0.816843
0.805428 0.000000 0.592694
0.231752 0.000000 0.972775
0.772758 0.000000 0.634701
0.605000 0.000000 0.796226
0.938440 0.000000 0.345444
0.538642 0.000000 0.842535
0.997923 0.000000 0.064424
0.960679 0.000000 0.277662
0.996148 0.000000 0.087689
0.666111 0.000000 0.745853
0.989879 0.000000 0.141917
0.998841 0.000000 0.048132
0.755609 0.000000 0.655023
0.081185 0.000000 0.996699
0.382448 0.000000 0.923977
0.771313 0.000000 0.636456
0.361782 0.000000 0.932263
0.081185 0.000000 0.996699
0.367488 0.000000 0.930028
0.988885 0.000000 0.148681
0.991206 0.000000 0.132327
0.152555 0.000000 0.988295
0.284519 0.000000 0.958670
0.855583 0.000000 0.517666
0.284529 0.000000 0.958668
0.546397 0.000000 0.837526
0.875048 0.000000 0.484037
0.098703 0.000000 0.995117
0.212444 0.000000 0.977173
0.193983 0.000000 0.981005
0.957643 0.000000 0.287957
0.136373 0.000000 0.990658
0.568410 0.000000 0.822746
0.065252 0.000000 0.997869
0.345402 0.000000 0.938455
0.989879 0.000000 0.141917
0.989498 0.000000 0.144544
0.468368 0.000000 0.883533
0.314615 0.000000 0.949219
0.342579 0.000000 0.939489
0.094699 0.000000 0.995506
0.649887 0.000000 0.760031
0.861332 0.000000 0.508042
0.094699 0.000000 0.995506
0.141011 0.000000 0.990008
0.138412 0.000000 0.990375
0.989409 0.000000 0.145156
0.954153 0.000000 0.299319
0.138412 0.000000 0.990375
0.484257 0.000000 0.874926
0.675466 0.000000 0.737391
0.696206 0.000000 0.717842
0.711993 0.000000 0.702186
0.760929 0.000000 0.648835
0.069783 0.000000 0.997562
0.989697 0.000000 0.143178
0.176093 0.000000 0.984374
0.158176 0.000000 0.987411
0.115826 0.000000 0.993270
0.146473 0.000000 0.989215
0.914847 0.000000 0.403801
0.983116 0.000000 0.182981
0.886683 0.000000 0.462377
0.100772 0.000000 0.994910
0.570448 0.000000 0.821334
0.076557 0.000000 0.997065
0.667390 0.000000 0.744709
0.143293 0.000000 0.989680
0.065252 0.000000 0.997869
0.796106 0.000000 0.605158
0.905610 0.000000 0.424112
0.959909 0.000000 0.280312
0.582325 0.000000 0.812956
0.935955 0.000000 0.352119
0.972318 0.000000 0.233660
0.989360 0.000000 0.145487
0.034359 0.000000 0.999410
0.094699 0.000000 0.995506
0.094699 0.000000 0.995506
0.305847 0.000000 0.952081
0.169739 0.000000 0.985489
0.060255 0.000000 0.998183
0.306182 0.000000 0.951973
0.277380 0.000000 0.960760
0.921869 0.000000 0.387502
0.569977 0.000000 0.821661
0.027762 0.000000 0.999615
0.390637 0.000000 0.920545
0.985402 0.000000 0.170245
0.821170 0.000000 0.570683
0.285709 0.000000 0.958316
0.991044 0.000000 0.133537
0.857880 0.000000 0.513851
0.090481 0.000000 0.995898
0.354674 0.000000 0.934990
0.503951 0.000000 0.863732
0.937260 0.000000 0.348631
0.739567 0.000000 0.673083
0.713701 0.000000 0.700451
0.461424 0.000000 0.887180
0.990020 0.000000 0.140926
0.995980 0.000000 0.089571
0.997632 0.000000 0.068779
0.973804 0.000000 0.227387
0.079821 0.000000 0.996809
0.302859 0.000000 0.953035
0.962272 0.000000 0.272090
0.994102 0.000000 0.108453
0.232426 0.000000 0.972614
0.329192 0.000000 0.944263
0.924634 0.000000 0.380856
0.137317 0.000000 0.990527
0.955294 0.000000 0.295656
0.725537 0.000000 0.688183
0.802348 0.000000 0.596857
0.997923 0.000000 0.064424
0.025614 0.000000 0.999672
0.036755 0.000000 0.999324
0.702164 0.000000 0.712015
0.645711 0.000000 0.763582
0.295890 0.000000 0.955222
0.984131 0.000000 0.177443
0.221663 0.000000 0.975123
0.943641 0.000000 0.330972
0.991044 0.000000 0.133537
0.589680 0.000000 0.807637
0.275040 0.000000 0.961433
0.374250 0.000000 0.927328
0.098703 0.000000 0.995117
0.849433 0.000000 0.527696
0.912161 0.000000 0.409833
0.489194 0.000000 0.872175
0.990159 0.000000 0.139945
0.790025 0.000000 0.613075
0.946777 0.000000 0.321891
0.942314 0.000000 0.334729
0.936201 0.000000 0.351464
0.819442 0.000000 0.573162
0.067191 0.000000 0.997740
0.146868 0.000000 0.989156
0.676256 0.000000 0.736667
0.847192 0.000000 0.531287
0.998948 0.000000 0.045858
0.899382 0.000000 0.437163
0.997632 0.000000 0.068779
0.069783 0.000000 0.997562
0.052812 0.000000 0.998604
0.139705 0.000000 0.990193
0.535928 0.000000 0.844264
0.275626 0.000000 0.961265
0.997611 0.000000 0.069076
0.996585 0.000000 0.082568
0.241563 0.000000 0.970385
0.743666 0.000000 0.668551
0.496941 0.000000 0.867784
0.023100 0.000000 0.999733
0.800578 0.000000 0.599229
0.961423 0.000000 0.275075
0.305980 0.000000 0.952038
0.295890 0.000000 0.955222
0.421923 0.000000 0.906632
0.522220 0.000000 0.852811
0.997611 0.000000 0.069076
0.014833 0.000000 0.999890
0.745714 0.000000 0.666267
0.855189 0.000000 0.518317
0.360435 0.000000 0.932784
0.142727 0.000000 0.989762
0.946222 0.000000 0.323517
0.982654 0.000000 0.185449
0.936589 0.000000 0.350429
0.745486 0.000000 0.666521
0.144407 0.000000 0.989518
0.974154 0.000000 0.225885
0.477717 0.000000 0.878514
0.509441 0.000000 0.860505
0.284807 0.000000 0.958585
0.880909 0.000000 0.473285
0.938018 0.000000 0.346587
0.284519 0.000000 0.958670
0.141011 0.000000 0.990008
0.085285 0.000000 0.996357
0.144373 0.000000 0.989523
0.101641 0.000000 0.994821
0.764739 0.000000 0.644341
0.996148 0.000000 0.087689
0.854797 0.000000 0.518963
0.314324 0.000000 0.949316
0.850795 0.000000 0.525498
0.275040 0.000000 0.961433
0.789409 0.000000 0.613868
0.795453 0.000000 0.606015
0.981003 0.000000 0.193991
0.980496 0.000000 0.196542
0.075866 0.000000 0.997118
0.904469 0.000000 0.426538
0.912880 0.000000 0.408228
0.957513 0.000000 0.288390
0.859286 0.000000 0.511496
0.478219 0.000000 0.878241
0.565179 0.000000 0.824968
0.520270 0.000000 0.854002
0.301751 0.000000 0.953387
0.997923 0.000000 0.064424
0.555676 0.000000 0.831399
0.808314 0.000000 0.588751
0.056128 0.000000 0.998424
0.103846 0.000000 0.994593
0.012653 0.000000 0.999920
0.614568 0.000000 0.788864
0.891164 0.000000 0.453682
0.075866 0.000000 0.997118
0.758862 0.000000 0.651251
0.956988 0.000000 0.290126
0.841895 0.000000 0.539642
0.945362 0.000000 0.326024
0.490761 0.000000 0.871294
0.937618 0.000000 0.347668
0.341739 0.000000 0.939795
0.051789 0.000000 0.998658
0.038053 0.000000 0.999276
0.314693 0.000000 0.949193
0.648999 0.000000 0.760789
0.843922 0.000000 0.536466
0.067191 0.000000 0.997740
0.958508 0.000000 0.285065
0.140317 0.000000 0.990107
0.953716 0.000000 0.300709
0.961266 0.000000 0.275624
0.099143 0.000000 0.995073
0.548225 0.000000 0.836331
0.819612 0.000000 0.572920
0.466715 0.000000 0.884408
0.141367 0.000000 0.989957
0.482125 0.000000 0.876102
0.493073 0.000000 0.869988
0.960095 0.000000 0.279674
0.989599 0.000000 0.143850
0.075857 0.000000 0.997119
0.934984 0.000000 0.354690
0.353617 0.000000 0.935390
0.956555 0.000000 0.291553
0.916632 0.000000 0.399731
0.945118 0.000000 0.326730
0.998948 0.000000 0.045858
0.989708 0.000000 0.143100
0.958911 0.000000 0.283706
0.137255 0.000000 0.990536
0.882921 0.000000 0.469522
0.431769 0.000000 0.901984
0.957678 0.000000 0.287842
0.990082 0.000000 0.140488
0.101641 0.000000 0.994821
0.997923 0.000000 0.064424
0.960099 0.000000 0.279660
0.989847 0.000000 0.142135
0.936472 0.000000 0.350741
0.996771 0.000000 0.080302
0.989655 0.000000 0.143470
0.924866 0.000000 0.380292
0.989360 0.000000 0.145487
0.996585 0.000000 0.082568
0.805515 0.000000 0.592576
0.944238 0.000000 0.329263
0.599357 0.000000 0.800482
0.311394 0.000000 0.950281
0.853064 0.000000 0.521807
0.665209 0.000000 0.746657
0.709705 0.000000 0.704499
0.012367 0.000000 0.999924
0.752876 0.000000 0.658163
0.684454 0.000000 0.729056
0.884750 0.000000 0.466065
0.136962 0.000000 0.990576
0.342338 0.000000 0.939577
0.130704 0.000000 0.991421
0.350053 0.000000 0.936730
0.069783 0.000000 0.997562
0.958911 0.000000 0.283706
0.989389 0.000000 0.145293
0.999218 0.000000 0.039536
0.197458 0.000000 0.980311
0.996771 0.000000 0.080302
0.734371 0.000000 0.678748
0.546108 0.000000 0.837715
0.026343 0.000000 0.999653
0.141762 0.000000 0.989901
0.273077 0.000000 0.961992
0.372833 0.000000 0.927898
0.892288 0.000000 0.451467
0.997611 0.000000 0.069076
0.853643 0.000000 0.520859
0.999150 0.000000 0.041215
0.785878 0.000000 0.618382
0.302908 0.000000 0.953020
0.766766 0.000000 0.641926
0.349835 0.000000 0.936811
0.107846 0.000000 0.994168
0.903461 0.000000 0.428671
0.859759 0.000000 0.510699
0.998031 0.000000 0.062727
0.345214 0.000000 0.938524
0.479858 0.000000 0.877346
0.312926 0.000000 0.949777
0.911251 0.000000 0.411851
0.944325 0.000000 0.329014
0.484298 0.000000 0.874903
0.277929 0.000000 0.960602
0.103877 0.000000 0.994590
0.959909 0.000000 0.280312
0.585547 0.000000 0.810638
0.948060 0.000000 0.318091
0.992707 0.000000 0.120549
0.081185 0.000000 0.996699
0.999676 0.000000 0.025448
0.222310 0.000000 0.974976
0.841510 0.000000 0.540242
0.012367 0.000000 0.999924
0.392882 0.000000 0.919589
0.243704 0.000000 0.969850
0.374250 0.000000 0.927328
0.138412 0.000000 0.990375
0.695839 0.000000 0.718197
0.247368 0.000000 0.968921
0.401193 0.000000 0.915994
0.367819 0.000000 0.929897
0.139447 0.000000 0.990229
0.846341 0.000000 0.532641
0.714255 0.000000 0.699886
0.447713 0.000000 0.894177
0.587745 0.000000 0.809046
0.965447 0.000000 0.260599
0.445893 0.000000 0.895086
0.196735 0.000000 0.980457
0.995720 0.000000 0.092425
0.301751 0.000000 0.953387
0.961266 0.000000 0.275624
0.921421 0.000000 0.388566
0.989879 0.000000 0.141917
0.995980 0.000000 0.089571
0.481966 0.000000 0.876190
0.850538 0.000000 0.525914
0.532723 0.000000 0.846290
0.536245 0.000000 0.844062
0.298855 0.000000 0.954299
0.075857 0.000000 0.997119
0.635120 0.000000 0.772413
0.986998 0.000000 0.160733
0.916653 0.000000 0.399683
0.144481 0.000000 0.989508
0.352055 0.000000 0.935979
0.076271 0.000000 0.997087
0.155718 0.000000 0.987801
0.071755 0.000000 0.997422
0.067191 0.000000 0.997740
0.372833 0.000000 0.927898
0.107846 0.000000 0.994168
0.505809 0.000000 0.862646
0.925688 0.000000 0.378288
0.608175 0.000000 0.793803
0.983267 0.000000 0.182173
0.616118 0.000000 0.787654
0.598906 0.000000 0.800819
0.136962 0.000000 0.990576
0.788891 0.000000 0.614533
0.694081 0.000000 0.719897
0.307570 0.000000 0.951525
0.046022 0.000000 0.998940
0.996585 0.000000 0.082568
0.626071 0.000000 0.779766
0.858648 0.000000 0.512565
0.286261 0.000000 0.958152
0.852898 0.000000 0.522077
0.507569 0.000000 0.861611
0.014833 0.000000 0.999890
0.562031 0.000000 0.827116
0.989847 0.000000 0.142135
0.364259 0.000000 0.931298
0.231345 0.000000 0.972872
0.363039 0.000000 0.931774
0.244903 0.000000 0.969548
0.904493 0.000000 0.426488
0.292170 0.000000 0.956366
0.120972 0.000000 0.992656
0.468534 0.000000 0.883446
0.429688 0.000000 0.902978
0.996147 0.000000 0.087696
0.989259 0.000000 0.146171
0.282625 0.000000 0.959230
0.090481 0.000000 0.995898
0.953311 0.000000 0.301990
0.136373 0.000000 0.990658
0.919458 0.000000 0.393188
0.075857 0.000000 0.997119
0.482657 0.000000 0.875810
0.989884 0.000000 0.141876
0.138316 0.000000 0.990388
0.817924 0.000000 0.575327
0.990289 0.000000 0.139025
0.399100 0.000000 0.916907
0.982572 0.000000 0.185883
0.999514 0.000000 0.031161
0.884326 0.000000 0.466870
0.989389 0.000000 0.145293
0.960588 0.000000 0.277975
0.887526 0.000000 0.460758
0.830789 0.000000 0.556588
0.887438 0.000000 0.460926
0.348411 0.000000 0.937342
0.475005 0.000000 0.879983
0.957800 0.000000 0.287436
0.958366 0.000000 0.285544
0.294595 0.000000 0.955622
0.498196 0.000000 0.867064
0.021938 0.000000 0.999759
0.999676 0.000000 0.025448
0.939100 0.000000 0.343645
0.135907 0.000000 0.990722
0.274970 0.000000 0.961453
0.996822 0.000000 0.079658
0.999218 0.000000 0.039536
0.143936 0.000000 0.989587
0.962424 0.000000 0.271553
0.090987 0.000000 0.995852
0.990268 0.000000 0.139172
0.266385 0.000000 0.963867
0.989879 0.000000 0.141917
0.143293 0.000000 0.989680
0.059059 0.000000 0.998255
0.997632 0.000000 0.068779
0.271498 0.000000 0.962439
0.963261 0.000000 0.268568
0.460070 0.000000 0.887883
0.937012 0.000000 0.349298
0.940933 0.000000 0.338593
0.375291 0.000000 0.926907
0.966339 0.000000 0.257272
0.611805 0.000000 0.791008
0.141906 0.000000 0.989880
0.431342 0.000000 0.902188
0.569114 0.000000 0.822259
0.802718 0.000000 0.596359
0.075866 0.000000 0.997118
0.016998 0.000000 0.999856
0.914163 0.000000 0.405347
0.954261 0.000000 0.298976
0.143936 0.000000 0.989587
0.989389 0.000000 0.145293
0.792763 0.000000 0.609530
0.549039 0.000000 0.835797
0.386832 0.000000 0.922150
0.992707 0.000000 0.120549
0.800183 0.000000 0.599755
0.592632 0.000000 0.805473
0.989222 0.000000 0.146427
0.138870 0.000000 0.990311
0.913705 0.000000 0.406379
0.869130 0.000000 0.494584
0.274253 0.000000 0.961658
0.873366 0.000000 0.487065
0.548529 0.000000 0.836131
0.989651 0.000000 0.143495
0.873897 0.000000 0.486112
0.798131 0.000000 0.602484
0.034359 0.000000 0.999410
0.030768 0.000000 0.999527
0.277929 0.000000 0.960602
0.075857 0.000000 0.997119
0.299279 0.000000 0.954166
0.116854 0.000000 0.993149
0.998523 0.000000 0.054340
0.394690 0.000000 0.918814
0.939211 0.000000 0.343340
0.270113 0.000000 0.962829
0.986259 0.000000 0.165209
0.710772 0.000000 0.703423
0.733632 0.000000 0.679547
0.989346 0.000000 0.145585
0.998038 0.000000 0.062609
0.999346 0.000000 0.036146
0.765278 0.000000 0.643700
0.835603 0.000000 0.549333
0.680568 0.000000 0.732685
0.267033 0.000000 0.963687
0.590985 0.000000 0.806683
0.785137 0.000000 0.619322
0.398891 0.000000 0.916998
0.978655 0.000000 0.205508
0.313184 0.000000 0.949693
0.710582 0.000000 0.703615
0.995980 0.000000 0.089571
0.838963 0.000000 0.544188
0.141011 0.000000 0.990008
0.761756 0.000000 0.647864
0.287578 0.000000 0.957757
0.729533 0.000000 0.683946
0.867376 0.000000 0.497653
0.537149 0.000000 0.843487
0.587681 0.000000 0.809093
0.690756 0.000000 0.723088
0.066335 0.000000 0.997797
0.961601 0.000000 0.274450
0.338136 0.000000 0.941097
0.677605 0.000000 0.735426
0.905253 0.000000 0.424874
0.287578 0.000000 0.957757
0.081185 0.000000 0.996699
0.081185 0.000000 0.996699
0.346586 0.000000 0.938018
0.238355 0.000000 0.971178
0.189016 0.000000 0.981974
0.991044 0.000000 0.133537
0.292459 0.000000 0.956278
0.396363 0.000000 0.918094
0.961144 0.000000 0.276048
0.998031 0.000000 0.062727
0.976898 0.000000 0.213705
0.989864 0.000000 0.142020
0.626285 0.000000 0.779594
0.368385 0.000000 0.929673
0.989259 0.000000 0.146171
0.959350 0.000000 0.282220
0.856854 0.000000 0.515559
0.903070 0.000000 0.429493
0.938560 0.000000 0.345115
0.972128 0.000000 0.234451
0.998907 0.000000 0.046734
0.029850 0.000000 0.999554
0.289289 0.000000 0.957242
0.571764 0.000000 0.820418
0.756584 0.000000 0.653896
0.468120 0.000000 0.883665
0.750401 0.000000 0.660983
0.116969 0.000000 0.993136
0.996147 0.000000 0.087696
0.849902 0.000000 0.526941