# vtk DataFile Version 3.1
director profile
ASCII
DATASET UNSTRUCTURED_GRID

POINTS 59713 FLOAT
0.595896 0.202857 0.236458
0.345896 0.484262 0.410760
0.148039 0.281405 0.660760
0.197857 0.734262 0.174302
0.977841 0.202857 0.442056
0.148039 0.486197 1.080133
0.413401 1.116970 0.174302
1.241408 0.442868 0.205598
0.708664 0.745082 0.891472
0.148039 0.204792 1.405831
0.215544 1.414113 0.174302
1.090608 0.463677 0.922767
0.776169 1.127791 0.655014
1.877885 0.260820 2.064172
0.510807 0.747017 1.310845
0.414118 0.204792 1.581860
1.354176 0.703688 0.686310
1.187775 1.086396 0.480712
0.215544 1.713446 0.333525
1.158830 0.260820 1.348796
0.776886 0.465612 1.562572
0.362768 1.198828 1.440434
0.508567 1.787387 0.731289
1.945352 0.240011 0.431633
0.444908 0.204792 1.949527
0.871335 1.498874 1.052778
1.452873 1.398300 0.480712
0.448852 2.076008 0.159222
0.807675 0.465612 1.930239
0.178828 0.367755 2.123940
1.519367 0.260820 1.531744
0.293023 1.856490 1.097335
0.655791 1.567977 1.418824
1.762308 0.866136 1.065572
0.541596 0.628575 2.104652
0.362768 1.273309 1.840559
2.232013 0.428263 0.226035
2.051342 0.605316 0.810895
0.362768 0.984461 2.074954
0.741875 2.149949 0.556987
0.207026 0.965020 2.674869
1.186764 0.260820 2.101452
1.915268 3.943657 2.239087
1.843318 1.380897 0.859974
0.233308 2.443300 0.159222
1.859277 0.626126 1.484977
0.178828 0.162963 2.454566
1.204830 2.115376 0.397764
2.148310 0.365306 1.230301
3.788798 2.229062 0.380757
2.338002 0.793569 0.605297
2.570406 0.188252 0.226035
2.111502 1.494681 0.379262
0.748622 0.619955 2.435278
2.317152 1.168172 0.379262
0.293023 2.319828 1.243540
2.773522 0.789711 1.011690
0.526331 2.511983 0.877494
0.168441 7.428678 2.799494
0.475219 3.046154 0.320507
0.233308 2.688043 0.479730
0.385855 0.359135 2.704566
0.293023 1.993072 1.891337
1.543551 0.240011 0.205598
1.568049 3.631510 0.373001
1.334290 1.732229 0.878476
2.104785 0.626126 1.852847
0.499050 6.435655 2.747058
1.014943 0.196171 2.694712
0.569794 0.975841 2.405580
0.207026 0.609135 2.850441
0.738727 1.218425 2.555139
0.635855 0.196171 2.854125
1.500741 2.535986 0.397764
2.939443 0.188252 0.487243
1.422344 0.630013 2.571298
0.461956 1.946808 2.275290
2.448519 0.365306 1.782995
1.842771 0.433841 2.394767
2.753690 1.269005 0.379262
0.293023 2.381929 1.637417
1.174487 1.588768 2.378476
0.375959 1.207605 2.824427
1.724735 1.714827 1.257738
2.463341 1.843822 0.379262
2.069672 0.799147 2.183442
1.309577 0.369193 2.840587
1.996779 2.142416 1.178282
1.828572 1.639978 2.007738
0.908630 2.842921 1.091273
1.088491 1.210999 2.730712
3.158082 0.338729 0.261207
3.036570 0.424405 0.893636
2.811418 0.601459 1.422550
0.168933 1.511433 2.824427
1.393020 0.978473 2.730712
0.168933 1.872867 2.627526
1.602550 0.173021 2.840587
2.969865 1.130554 0.785655
1.572346 1.623132 2.378476
1.902244 2.580429 0.799020
1.420084 2.901496 0.770766
0.254409 4.429117 0.169142
1.980004 0.173021 2.664055
2.009010 1.239058 2.359974
1.795901 4.173651 1.113721
0.293023 2.796283 1.828983
1.108286 2.875149 2.647764
0.857517 3.176425 0.693509
2.467201 2.157628 0.780518
3.255209 0.574881 0.667600
0.650646 2.229011 2.450863
3.234317 0.915724 0.406393
0.241911 3.388682 0.489649
1.163208 1.905715 2.647764
1.752785 1.222213 2.730712
3.489478 0.150476 0.261207
2.100616 2.067567 1.928282
1.368972 3.235000 0.373001
2.372667 2.595641 0.401256
3.523617 6.046116 2.728807
9.344258 10.965961 2.065124
0.357623 2.155071 2.803099
1.002134 2.195344 2.647764
4.826637 0.426696 0.197531
3.045210 0.236153 1.936780
1.561067 1.940079 2.647764
0.241911 3.643939 0.169142
1.821588 2.945940 1.172022
2.854592 0.905267 2.109123
3.286793 0.236153 1.624519
0.624209 3.518953 0.862651
2.350915 0.173021 2.823468
1.846114 2.280029 2.299020
3.186387 1.782017 0.760019
3.270067 1.429017 1.166412
0.188690 2.499523 2.803099
3.651169 0.950757 0.406393
2.420265 1.282047 2.629262
2.973054 2.129583 1.161275
3.718460 0.386629 0.865132
0.382298 3.604191 1.263737
1.665462 2.588349 2.299020
0.254409 5.040983 0.629566
1.219341 2.538028 2.647764
0.534465 10.994807 2.836993
0.188690 2.865688 2.610711
2.624938 0.476830 2.823468
3.112733 0.539961 2.275921
3.871332 0.150476 0.458739
0.722147 2.993082 2.455377
0.915755 3.235264 2.078378
0.824723 1.596194 2.202903
3.015606 0.303808 2.619527
3.656287 0.236153 1.621108
3.934880 0.609915 0.603924
2.627744 2.055856 2.280518
3.749535 1.286997 0.787150
2.787070 0.601459 1.769983
2.743384 2.973499 0.401256
1.301894 3.117331 2.270766
3.585538 1.894276 0.380757
3.047291 1.467496 2.285655
4.087753 0.373762 0.197531
3.242075 1.650404 1.916412
0.496320 4.086562 0.169142
9.387877 2.244021 0.731243
6.637795 5.929534 2.428878
1.026593 9.017292 0.315049
2.135346 2.398117 2.651256
2.766956 1.671255 2.629262
3.907549 1.528409 0.380757
0.987950 4.033082 0.916777
0.429123 3.169142 2.807612
1.943616 3.718097 0.739087
1.954694 2.706437 2.651256
3.430407 0.717366 2.452452
0.391200 10.456415 1.864976
2.597416 3.378379 0.767342
9.767377 0.235658 2.552541
4.172286 0.726749 1.091668
3.333281 0.481213 2.796059
4.009238 1.213465 1.274894
3.328417 2.602647 1.175650
0.746039 4.118320 1.317864
1.420334 4.087064 0.747636
3.914361 3.726835 0.720292
3.764232 0.680868 2.190196
0.655791 1.642458 1.818949
2.604011 2.382578 2.651256
2.501235 4.495102 0.741432
0.622731 3.777785 2.259850
4.162824 0.503464 1.499117
2.173824 3.872635 0.366085
3.193282 3.008550 0.794893
0.860061 4.345434 0.543776
4.467312 0.223286 0.197531
2.141135 3.487833 1.890343
0.240433 3.531052 2.807612
3.559258 0.177405 2.796059
2.480927 0.842135 2.452730
2.109753 3.053790 2.651256
1.292446 4.399416 0.374634
0.240433 3.897514 2.636848
4.290452 1.655077 0.380757
3.607926 1.119422 2.656393
3.745009 2.589866 0.774393
0.363740 4.426331 1.286063
7.302100 2.284841 2.629287
4.149512 0.267311 2.054038
3.018126 7.293662 2.579603
3.677734 1.687154 2.287150
0.254409 4.617399 0.510343
3.965430 1.392236 2.024894
3.385123 2.575724 1.925649
3.910799 0.177405 2.658845
0.451391 9.965488 2.779889
3.609874 2.995769 0.393636
1.515418 3.468511 2.623002
3.047313 3.413429 1.160978
3.074465 0.236153 1.304495
8.167723 2.065144 0.667952
0.618150 4.626272 0.884977
4.256399 2.107420 0.380757
7.728534 6.347488 0.634420
2.837175 2.842265 2.651256
2.165960 4.303809 0.366085
0.780054 4.104963 2.452237
2.575111 3.724777 0.366085
4.660347 0.868237 1.050296
4.497299 1.354952 1.233521
2.523570 3.205156 2.651256
0.363740 4.556298 1.696157
4.457259 2.227853 0.861619
1.538223 3.864513 2.623002
1.516511 0.260820 1.916733
4.620499 1.555152 0.745777
3.013598 3.420408 1.910978
3.216272 2.988605 2.294893
9.098597 9.084747 2.193589
7.342556 3.695197 0.680084
1.772462 4.277409 1.863721
0.903361 4.448947 2.076871
4.911825 0.804336 0.562552
0.148546 9.588528 0.376315
1.188999 4.132735 2.623002
4.726054 0.267311 1.763627
4.817208 0.644951 1.384901
2.558793 3.507160 2.267342
4.314487 0.625874 2.600530
2.831317 4.153228 0.741432
4.187564 2.598711 1.255256
4.206639 0.358564 2.862786
0.397755 4.224692 2.829236
1.696273 2.890852 1.922022
5.094961 0.203410 0.379460
4.324304 1.754080 2.099363
3.917533 3.277563 0.393636
7.078691 0.523112 2.174133
4.254593 1.027930 2.737744
1.312306 4.476719 2.247636
3.893776 2.181135 2.630757
5.011017 1.271847 0.365021
0.618150 5.049855 1.004201
5.063141 0.377640 1.079085
2.848531 1.669904 0.379262
3.180162 3.956789 1.135069
4.617844 1.729665 1.714384
0.363740 4.904055 1.830702
7.189282 6.538825 0.763291
4.669252 0.448470 2.384361
4.741043 1.929864 1.226640
1.348562 18.438871 0.305412
0.453620 5.268900 0.288365
4.985248 0.644951 1.721200
15.025360 0.771797 0.649892
15.413624 0.640161 2.074740
4.199329 2.653217 2.005256
4.279625 2.216904 2.361619
0.157322 4.559804 2.829236
2.631837 4.667064 0.375347
1.540672 5.136420 0.374634
4.342811 3.146379 0.393636
0.817360 5.277772 0.663000
4.747401 2.502572 0.480862
4.477706 2.873430 0.874499
3.146447 3.963768 1.885069
2.592762 3.959588 2.616086
2.201750 4.204223 2.616086
0.521063 4.909115 2.239501
0.697780 14.378688 2.754862
0.363740 5.197671 1.539831
1.909796 3.242033 2.274258
2.058944 4.537975 2.240719
5.463106 0.203410 0.181928
1.236292 5.318127 0.374634
4.610646 1.175285 2.737744
4.811405 0.181159 2.646616
4.656677 1.592124 2.468606
5.364196 0.377640 1.246132
2.417659 4.625511 1.866066
0.157322 4.900243 2.614867
5.310309 0.377640 1.598034
4.921452 0.596374 2.521574
13.641137 1.490757 2.617535
5.096669 0.792855 2.136595
0.199211 5.576277 0.288365
0.239324 14.233100 2.398186
2.853875 4.266236 2.241432
3.397644 4.415283 0.702002
5.417851 1.432047 0.365021
3.642101 4.271218 0.326656
3.965127 3.976171 0.326656
5.611290 0.760389 0.546949
4.922738 0.921133 2.737744
5.434097 2.514845 2.305534
5.097956 1.117614 2.352765
1.224563 4.947383 2.624634
5.188792 2.140830 1.170554
0.815618 5.143588 2.410265
4.524117 2.249588 2.730863
1.960015 5.395818 0.374634
5.112554 2.524625 0.805534
2.693082 5.084276 0.375347
5.063604 0.329063 2.783830
4.762129 1.844213 2.730863
5.776102 0.382749 0.181928
0.870302 5.667700 1.033393
5.994898 4.963928 0.638059
4.386084 7.430788 1.965508
0.671092 5.591940 1.569024
3.883079 3.486944 2.643636
3.456895 4.144919 2.268983
0.451877 5.134716 2.785631
5.749800 1.143875 0.365021
4.756915 3.212646 1.251105
1.289234 5.708055 0.745028
5.653697 12.415399 2.057196
1.985523 4.932998 2.624634
4.464561 3.123281 2.374499
5.365420 2.565370 0.324671
10.564581 2.185354 2.310692
0.965647 5.532797 2.030658
2.344239 5.020534 2.249981
4.362887 4.077139 0.326656
5.707865 0.377640 1.776974
1.611298 5.143095 2.624634
13.756492 3.857812 0.768798
3.705170 4.370222 1.845639
0.481713 2.689628 2.258475
3.492641 4.865100 0.702002
3.737099 4.721036 0.326656
3.747836 3.931993 2.643636
5.287266 1.766686 2.345883
6.035186 0.179339 0.418112
5.628696 0.525545 2.162395
3.164324 4.447387 2.625347
3.118161 5.192220 0.375347
2.102239 16.046902 1.971613
2.593052 11.453810 0.645977
4.892099 3.640813 0.376606
9.603251 3.533024 1.223943
0.294555 5.441373 2.785631
2.451897 5.498390 1.115170
9.218243 3.494205 2.352264
4.849113 2.600408 2.730863
[...]
POINT_DATA 59713
VECTORS director FLOAT
0.061262 0.000000 0.998122
0.160436 0.000000 0.987046
0.299646 0.000000 0.954051
0.025698 0.000000 0.999670
0.178102 0.000000 0.984012
0.518007 0.000000 0.855376
0.025698 0.000000 0.999670
0.043611 0.000000 0.999049
0.422736 0.000000 0.906253
0.667663 0.000000 0.744464
0.025698 0.000000 0.999670
0.438912 0.000000 0.898530
0.296504 0.000000 0.955031
0.894867 0.000000 0.446334
0.626193 0.000000 0.779668
0.739203 0.000000 0.673483
0.313575 0.000000 0.949564
0.199843 0.000000 0.979828
0.116630 0.000000 0.993175
0.642991 0.000000 0.765874
0.731718 0.000000 0.681608
0.682285 0.000000 0.731086
0.337930 0.000000 0.941171
0.172225 0.000000 0.985058
0.863651 0.000000 0.504089
0.504542 0.000000 0.863387
0.199843 0.000000 0.979828
0.017063 0.000000 0.999854
0.858030 0.000000 0.513600
0.909618 0.000000 0.415445
0.719569 0.000000 0.694421
0.526409 0.000000 0.850231
0.673184 0.000000 0.739475
0.510855 0.000000 0.859667
0.904973 0.000000 0.425468
0.830529 0.000000 0.556975
0.055303 0.000000 0.998470
0.380477 0.000000 0.924790
0.897606 0.000000 0.440799
0.242444 0.000000 0.970165
0.993635 0.000000 0.112645
0.904192 0.000000 0.427126
0.935020 0.000000 0.354595
0.406319 0.000000 0.913731
0.017063 0.000000 0.999854
0.700713 0.000000 0.713444
0.971560 0.000000 0.236793
0.153085 0.000000 0.988213
0.589572 0.000000 0.807716
0.143452 0.000000 0.989657
0.269193 0.000000 0.963086
0.055303 0.000000 0.998470
0.142604 0.000000 0.989780
0.968885 0.000000 0.247512
0.142604 0.000000 0.989780
0.595680 0.000000 0.803222
0.484086 0.000000 0.875020
0.415468 0.000000 0.909608
0.999139 0.000000 0.041493
0.109222 0.000000 0.994017
0.199292 0.000000 0.979940
0.995408 0.000000 0.095728
0.846374 0.000000 0.532589
0.043611 0.000000 0.999049
0.139054 0.000000 0.990285
0.415979 0.000000 0.909374
0.834429 0.000000 0.551116
0.997442 0.000000 0.071477
0.994851 0.000000 0.101345
0.964535 0.000000 0.263955
0.999924 0.000000 0.012324
0.983581 0.000000 0.180466
0.999948 0.000000 0.010214
0.153085 0.000000 0.988213
0.203507 0.000000 0.979073
0.985209 0.000000 0.171355
0.942171 0.000000 0.335132
0.811718 0.000000 0.584050
0.962882 0.000000 0.269924
0.142604 0.000000 0.989780
0.760256 0.000000 0.649624
0.960321 0.000000 0.278897
0.999629 0.000000 0.027221
0.602191 0.000000 0.798352
0.142604 0.000000 0.989780
0.923246 0.000000 0.384210
0.999839 0.000000 0.017968
0.565249 0.000000 0.824920
0.879975 0.000000 0.475020
0.523454 0.000000 0.852054
0.996729 0.000000 0.080812
0.075404 0.000000 0.997153
0.423859 0.000000 0.905728
0.674760 0.000000 0.738037
0.999629 0.000000 0.027221
0.996729 0.000000 0.080812
0.990216 0.000000 0.139543
0.999839 0.000000 0.017968
0.367069 0.000000 0.930194
0.960321 0.000000 0.278897
0.374178 0.000000 0.927357
0.359123 0.000000 0.933290
0.022743 0.000000 0.999741
0.992919 0.000000 0.118797
0.957312 0.000000 0.289058
0.534366 0.000000 0.845254
0.826818 0.000000 0.562470
0.991767 0.000000 0.128056
0.317487 0.000000 0.948263
0.364330 0.000000 0.931270
0.303381 0.000000 0.952869
0.971056 0.000000 0.238853
0.157967 0.000000 0.987444
0.204856 0.000000 0.978792
0.991767 0.000000 0.128056
0.996729 0.000000 0.080812
0.075404 0.000000 0.997153
0.857454 0.000000 0.514561
0.139054 0.000000 0.990285
0.155061 0.000000 0.987905
0.996641 0.000000 0.081899
0.895110 0.000000 0.445846
0.999222 0.000000 0.039430
0.991767 0.000000 0.128056
0.038995 0.000000 0.999239
0.859948 0.000000 0.510382
0.991767 0.000000 0.128056
0.022743 0.000000 0.999741
0.562287 0.000000 0.826942
0.906060 0.000000 0.423149
0.755436 0.000000 0.655223
0.407720 0.000000 0.913107
0.999614 0.000000 0.027770
0.946639 0.000000 0.322296
0.353371 0.000000 0.935483
0.559627 0.000000 0.828744
0.999222 0.000000 0.039430
0.157967 0.000000 0.987444
0.990354 0.000000 0.138559
0.557187 0.000000 0.830387
0.409017 0.000000 0.912527
0.604931 0.000000 0.796278
0.946639 0.000000 0.322296
0.282554 0.000000 0.959252
0.991767 0.000000 0.128056
0.999799 0.000000 0.020026
0.988826 0.000000 0.149073
0.999614 0.000000 0.027770
0.942292 0.000000 0.334791
0.187497 0.000000 0.982265
0.971670 0.000000 0.236342
0.898469 0.000000 0.439038
0.927471 0.000000 0.373895
0.989566 0.000000 0.144078
0.754154 0.000000 0.656697
0.268436 0.000000 0.963298
0.943171 0.000000 0.332309
0.367865 0.000000 0.929879
0.807342 0.000000 0.590084
0.155061 0.000000 0.987905
0.941300 0.000000 0.337572
0.143452 0.000000 0.989657
0.944144 0.000000 0.329533
0.038995 0.000000 0.999239
0.853936 0.000000 0.520379
0.022743 0.000000 0.999741
0.337906 0.000000 0.941180
0.967971 0.000000 0.251062
0.106113 0.000000 0.994354
0.992021 0.000000 0.126072
0.990354 0.000000 0.138559
0.143452 0.000000 0.989657
0.435827 0.000000 0.900031
0.999321 0.000000 0.036847
0.342131 0.000000 0.939652
0.992021 0.000000 0.126072
0.971273 0.000000 0.237969
0.838237 0.000000 0.545306
0.357292 0.000000 0.933993
0.983312 0.000000 0.181929
0.523647 0.000000 0.851935
0.999055 0.000000 0.043458
0.610007 0.000000 0.792396
0.564004 0.000000 0.825772
0.629322 0.000000 0.777144
0.346727 0.000000 0.937966
0.331996 0.000000 0.943281
0.924725 0.000000 0.380635
0.823572 0.000000 0.567212
0.992021 0.000000 0.126072
0.343393 0.000000 0.939192
0.939171 0.000000 0.343451
0.706467 0.000000 0.707746
0.135130 0.000000 0.990828
0.371985 0.000000 0.928239
0.235097 0.000000 0.971972
0.038995 0.000000 0.999239
0.846071 0.000000 0.533070
0.999321 0.000000 0.036847
0.999055 0.000000 0.043458
0.971310 0.000000 0.237815
0.992021 0.000000 0.126072
0.139980 0.000000 0.990154
0.990947 0.000000 0.134254
0.143452 0.000000 0.989657
0.992388 0.000000 0.123153
0.361061 0.000000 0.932542
0.615064 0.000000 0.788477
0.990356 0.000000 0.138545
0.892261 0.000000 0.451520
0.986013 0.000000 0.166667
0.944426 0.000000 0.328724
0.216443 0.000000 0.976295
0.884600 0.000000 0.466351
0.856677 0.000000 0.515853
0.992560 0.000000 0.121759
0.998610 0.000000 0.052709
0.150748 0.000000 0.988572
0.989851 0.000000 0.142109
0.557045 0.000000 0.830482
0.623353 0.000000 0.781940
0.303573 0.000000 0.952808
0.419362 0.000000 0.907819
0.143452 0.000000 0.989657
0.285219 0.000000 0.958462
0.992021 0.000000 0.126072
0.135130 0.000000 0.990828
0.971243 0.000000 0.238089
0.135130 0.000000 0.990828
0.503314 0.000000 0.864103
0.591061 0.000000 0.806627
0.992021 0.000000 0.126072
0.781677 0.000000 0.623683
0.407180 0.000000 0.913348
0.989851 0.000000 0.142109
0.854031 0.000000 0.520222
0.345729 0.000000 0.938334
0.852312 0.000000 0.523034
0.945875 0.000000 0.324533
0.925463 0.000000 0.378837
0.310187 0.000000 0.950676
0.837845 0.000000 0.545909
0.898089 0.000000 0.439813
0.245536 0.000000 0.969388
0.140933 0.000000 0.990019
0.989851 0.000000 0.142109
0.805189 0.000000 0.593019
0.658690 0.000000 0.752414
0.940636 0.000000 0.339418
0.987940 0.000000 0.154837
0.343393 0.000000 0.939192
0.601056 0.000000 0.799207
0.999986 0.000000 0.005254
0.999701 0.000000 0.024467
0.855603 0.000000 0.517632
0.142716 0.000000 0.989764
0.903681 0.000000 0.428207
0.150748 0.000000 0.988572
0.921184 0.000000 0.389127
0.997047 0.000000 0.076797
0.936745 0.000000 0.350012
0.990472 0.000000 0.137711
0.134526 0.000000 0.990910
0.480328 0.000000 0.877089
0.517493 0.000000 0.855687
0.142604 0.000000 0.989780
0.544660 0.000000 0.838657
0.788145 0.000000 0.615489
0.827371 0.000000 0.561655
0.355124 0.000000 0.934819
0.961256 0.000000 0.275658
0.587877 0.000000 0.808950
0.100623 0.000000 0.994925
0.090905 0.000000 0.995860
0.790542 0.000000 0.612408
0.293701 0.000000 0.955897
0.897552 0.000000 0.440909
0.879299 0.000000 0.476271
0.957584 0.000000 0.288155
0.999701 0.000000 0.024467
0.140384 0.000000 0.990097
0.139980 0.000000 0.990154
0.150748 0.000000 0.988572
0.300869 0.000000 0.953665
0.199928 0.000000 0.979811
0.413907 0.000000 0.910319
0.844457 0.000000 0.535624
0.989280 0.000000 0.146029
0.989280 0.000000 0.146029
0.935104 0.000000 0.354373
0.997752 0.000000 0.067018
0.722778 0.000000 0.691080
0.941973 0.000000 0.335689
0.935351 0.000000 0.353720
0.030064 0.000000 0.999548
0.139980 0.000000 0.990154
0.997047 0.000000 0.076797
0.991683 0.000000 0.128708
0.973433 0.000000 0.228973
0.596871 0.000000 0.802337
0.838577 0.000000 0.544783
0.989178 0.000000 0.146719
0.745410 0.000000 0.666606
0.979930 0.000000 0.199340
0.989401 0.000000 0.145208
0.912606 0.000000 0.408841
0.090905 0.000000 0.995860
0.963408 0.000000 0.268038
0.935495 0.000000 0.353339
0.322096 0.000000 0.946707
0.134526 0.000000 0.990910
0.112721 0.000000 0.993627
0.112721 0.000000 0.993627
0.236863 0.000000 0.971543
0.997047 0.000000 0.076797
0.947835 0.000000 0.318762
0.956110 0.000000 0.293008
0.989983 0.000000 0.141183
0.561592 0.000000 0.827414
0.965240 0.000000 0.261367
0.996736 0.000000 0.080726
0.139980 0.000000 0.990154
0.377635 0.000000 0.925954
0.140384 0.000000 0.990097
0.998726 0.000000 0.050455
0.996736 0.000000 0.080726
0.030064 0.000000 0.999548
0.494925 0.000000 0.868936
0.287216 0.000000 0.957866
0.868229 0.000000 0.496163
0.734231 0.000000 0.678899
0.991461 0.000000 0.130401
0.940955 0.000000 0.338533
0.998778 0.000000 0.049425
0.134526 0.000000 0.990910
0.599154 0.000000 0.800634
0.345326 0.000000 0.938483
0.893076 0.000000 0.449906
0.989983 0.000000 0.141183
0.959683 0.000000 0.281083
0.111592 0.000000 0.993754
0.948772 0.000000 0.315960
0.886135 0.000000 0.463427
0.937214 0.000000 0.348754
0.112721 0.000000 0.993627
0.809699 0.000000 0.586846
0.989983 0.000000 0.141183
0.358071 0.000000 0.933694
0.832146 0.000000 0.554557
0.938900 0.000000 0.344190
0.322096 0.000000 0.946707
0.112721 0.000000 0.993627
0.991461 0.000000 0.130401
0.954948 0.000000 0.296774
0.164591 0.000000 0.986362
0.918547 0.000000 0.395311
0.990041 0.000000 0.140779
0.140384 0.000000 0.990097
0.869959 0.000000 0.493124
0.291557 0.000000 0.956553
0.141099 0.000000 0.989996
0.586626 0.000000 0.809858
0.998778 0.000000 0.049425
0.535067 0.000000 0.844810
0.956026 0.000000 0.293282
0.996736 0.000000 0.080726
0.996736 0.000000 0.080726
0.567070 0.000000 0.823670
0.878164 0.000000 0.478360
0.418341 0.000000 0.908290
0.823059 0.000000 0.567956
0.991461 0.000000 0.130401
0.838297 0.000000 0.545213
0.532668 0.000000 0.846324
0.322779 0.000000 0.946474
0.936221 0.000000 0.351411
0.779992 0.000000 0.625790
0.989191 0.000000 0.146632
0.137575 0.000000 0.990491
0.044434 0.000000 0.999012
0.931149 0.000000 0.364639
0.134526 0.000000 0.990910
0.910759 0.000000 0.412939
0.315900 0.000000 0.948793
0.315413 0.000000 0.948954
0.832546 0.000000 0.553956
0.344601 0.000000 0.938749
0.982769 0.000000 0.184839
0.111592 0.000000 0.993754
0.503766 0.000000 0.863840
0.112721 0.000000 0.993627
0.996736 0.000000 0.080726
0.836747 0.000000 0.547589
0.964602 0.000000 0.263710
0.734109 0.000000 0.679031
0.989191 0.000000 0.146632
0.342910 0.000000 0.939368
0.960335 0.000000 0.278848
0.112721 0.000000 0.993627
0.998778 0.000000 0.049425
0.263313 0.000000 0.964710
0.141099 0.000000 0.989996
0.347987 0.000000 0.937499
0.990041 0.000000 0.140779
0.990041 0.000000 0.140779
0.315900 0.000000 0.948793
0.858589 0.000000 0.512665
0.321703 0.000000 0.946841
0.997837 0.000000 0.065738
0.566442 0.000000 0.824102
0.121081 0.000000 0.992643
0.858198 0.000000 0.513319
0.916426 0.000000 0.400205
0.981179 0.000000 0.193098
0.956896 0.000000 0.290431
0.134622 0.000000 0.990897
0.137575 0.000000 0.990491
0.322779 0.000000 0.946474
0.991461 0.000000 0.130401
0.682050 0.000000 0.731306
0.924810 0.000000 0.380428
0.989638 0.000000 0.143587
0.340244 0.000000 0.940337
0.991120 0.000000 0.132973
0.291326 0.000000 0.956624
0.064442 0.000000 0.997921
0.354141 0.000000 0.935192
0.887553 0.000000 0.460705
0.772085 0.000000 0.635519
0.998073 0.000000 0.062055
0.985730 0.000000 0.168331
0.134622 0.000000 0.990897
0.956343 0.000000 0.292247
0.141099 0.000000 0.989996
0.472388 0.000000 0.881391
0.823872 0.000000 0.566776
0.869317 0.000000 0.494255
0.112102 0.000000 0.993697
0.111592 0.000000 0.993754
0.985730 0.000000 0.168331
0.938244 0.000000 0.345974
0.961822 0.000000 0.273677
0.058185 0.000000 0.998306
0.283419 0.000000 0.958996
0.934306 0.000000 0.356471
0.927548 0.000000 0.373705
0.346589 0.000000 0.938017
0.109209 0.000000 0.994019
0.947822 0.000000 0.318800
0.985538 0.000000 0.169452
0.989638 0.000000 0.143587
0.564587 0.000000 0.825374
0.468044 0.000000 0.883705
0.263313 0.000000 0.964710
0.032182 0.000000 0.999482
0.216919 0.000000 0.976190
0.964061 0.000000 0.265682
0.351468 0.000000 0.936200
0.134622 0.000000 0.990897
0.958541 0.000000 0.284955
0.693961 0.000000 0.720012
0.054284 0.000000 0.998526
0.927122 0.000000 0.374759
0.137575 0.000000 0.990491
0.927697 0.000000 0.373335
0.699008 0.000000 0.715114
0.680242 0.000000 0.732987
0.998073 0.000000 0.062055
0.296589 0.000000 0.955005
0.268055 0.000000 0.963404
0.323156 0.000000 0.946346
0.568583 0.000000 0.822626
0.324557 0.000000 0.945866
0.989205 0.000000 0.146537
0.851432 0.000000 0.524466
0.990142 0.000000 0.140065
0.539664 0.000000 0.841880
0.985625 0.000000 0.168946
0.996641 0.000000 0.081899
0.989205 0.000000 0.146537
0.137575 0.000000 0.990491
0.121081 0.000000 0.992643
0.934306 0.000000 0.356471
0.547321 0.000000 0.836922
0.793563 0.000000 0.608488
0.112102 0.000000 0.993697
0.985538 0.000000 0.169452
0.391305 0.000000 0.920261
0.470023 0.000000 0.882654
0.149564 0.000000 0.988752
0.994061 0.000000 0.108829
0.997442 0.000000 0.071477
0.990142 0.000000 0.140065
0.953789 0.000000 0.300476
0.996641 0.000000 0.081899
0.469400 0.000000 0.882985
0.276537 0.000000 0.961003
0.927888 0.000000 0.372859
0.879653 0.000000 0.475616
0.698496 0.000000 0.715614
0.992552 0.000000 0.121819
0.385379 0.000000 0.922758
0.991974 0.000000 0.126445
0.032182 0.000000 0.999482
0.161072 0.000000 0.986943
0.656606 0.000000 0.754234
0.216919 0.000000 0.976190
0.036717 0.000000 0.999326
1.000000 0.000000 -0.000000
0.353092 0.000000 0.935588
0.989638 0.000000 0.143587
0.931149 0.000000 0.364639
0.324557 0.000000 0.945866
0.463669 0.000000 0.886009
0.990142 0.000000 0.140065
0.794496 0.000000 0.607269
0.990356 0.000000 0.138545
0.960287 0.000000 0.279015
0.998073 0.000000 0.062055
0.859529 0.000000 0.511086
0.112102 0.000000 0.993697
0.142618 0.000000 0.989778
0.318184 0.000000 0.948029
0.096808 0.000000 0.995303
0.985625 0.000000 0.168946
0.941999 0.000000 0.335616
0.353092 0.000000 0.935588
0.989205 0.000000 0.146537
0.127463 0.000000 0.991843
0.064442 0.000000 0.997921
0.996641 0.000000 0.081899
0.375225 0.000000 0.926934
0.939102 0.000000 0.343640
0.519850 0.000000 0.854258
0.561392 0.000000 0.827550
0.935314 0.000000 0.353819
0.323263 0.000000 0.946309
0.982682 0.000000 0.185302
0.952451 0.000000 0.304692
0.680238 0.000000 0.732992
0.485576 0.000000 0.874194
0.032182 0.000000 0.999482
0.263288 0.000000 0.964717
0.883572 0.000000 0.468296
0.987765 0.000000 0.155948
0.923732 0.000000 0.383038
0.935282 0.000000 0.353904
0.996641 0.000000 0.081899
0.033328 0.000000 0.999444
0.890801 0.000000 0.454394
0.817766 0.000000 0.575551
0.519974 0.000000 0.854182
0.812770 0.000000 0.582585
0.925724 0.000000 0.378200
0.148182 0.000000 0.988960
0.709033 0.000000 0.705175
0.404769 0.000000 0.914419
0.941662 0.000000 0.336559
0.950472 0.000000 0.310811
0.064442 0.000000 0.997921
0.114399 0.000000 0.993435
0.013583 0.000000 0.999908
0.844408 0.000000 0.535701
0.991120 0.000000 0.132973
0.396408 0.000000 0.918075
0.514470 0.000000 0.857509
0.152108 0.000000 0.988364
0.465809 0.000000 0.884885
0.431592 0.000000 0.902069
0.927888 0.000000 0.372859
0.892999 0.000000 0.450059
0.142618 0.000000 0.989778
0.990356 0.000000 0.138545
0.331140 0.000000 0.943582
0.269218 0.000000 0.963079
0.783476 0.000000 0.621421
0.296498 0.000000 0.955034
0.980062 0.000000 0.198691
0.923204 0.000000 0.384309
0.989495 0.000000 0.144568
0.952451 0.000000 0.304692
0.927697 0.000000 0.373335
0.828479 0.000000 0.560020
0.996641 0.000000 0.081899
0.726364 0.000000 0.687310
0.301513 0.000000 0.953462
0.895551 0.000000 0.444959
0.950472 0.000000 0.310811
0.127445 0.000000 0.991846
0.443221 0.000000 0.896413
0.991640 0.000000 0.129037
0.824860 0.000000 0.565336
0.201882 0.000000 0.979410
0.991120 0.000000 0.132973
0.624785 0.000000 0.780797
0.085313 0.000000 0.996354
0.967472 0.000000 0.252976
0.998738 0.000000 0.050214
0.931374 0.000000 0.364064
0.263019 0.000000 0.964791
0.986341 0.000000 0.164718
0.441821 0.000000 0.897103
0.676778 0.000000 0.736187
0.864978 0.000000 0.501810
0.999776 0.000000 0.021154
0.121081 0.000000 0.992643
0.305212 0.000000 0.952284
0.070580 0.000000 0.997506
0.474953 0.000000 0.880011
0.353033 0.000000 0.935611
0.987113 0.000000 0.160028
0.293684 0.000000 0.955902
0.412872 0.000000 0.910789
0.989369 0.000000 0.145429
0.985949 0.000000 0.167047
0.998738 0.000000 0.050214
0.361677 0.000000 0.932304
0.536279 0.000000 0.844041
0.991640 0.000000 0.129037
0.634685 0.000000 0.772771
0.422899 0.000000 0.906177
0.961645 0.000000 0.274297
0.417670 0.000000 0.908599
0.152108 0.000000 0.988364
0.993344 0.000000 0.115181
0.825895 0.000000 0.563824
0.207733 0.000000 0.978186
0.438030 0.000000 0.898961
0.986013 0.000000 0.166667
0.999139 0.000000 0.041493
0.943226 0.000000 0.332153
0.856064 0.000000 0.516870
0.931702 0.000000 0.363225
0.968174 0.000000 0.250279
0.135732 0.000000 0.990746
0.224639 0.000000 0.974442
0.331140 0.000000 0.943582
0.991640 0.000000 0.129037
0.996736 0.000000 0.080726
0.594122 0.000000 0.804375
0.715540 0.000000 0.698572
0.106113 0.000000 0.994354
0.212156 0.000000 0.977236
0.139980 0.000000 0.990154
0.798306 0.000000 0.602252
0.070580 0.000000 0.997506
0.152866 0.000000 0.988247
0.584491 0.000000 0.811400
0.192806 0.000000 0.981237
0.385281 0.000000 0.922799
0.915686 0.000000 0.401895
0.930073 0.000000 0.367376
0.760201 0.000000 0.649688
0.529236 0.000000 0.848475
0.600298 0.000000 0.799776
0.125501 0.000000 0.992093
0.070580 0.000000 0.997506
0.416949 0.000000 0.908930
0.881521 0.000000 0.472144
0.991640 0.000000 0.129037
0.999776 0.000000 0.021154
0.217715 0.000000 0.976012
0.969354 0.000000 0.245668
0.289646 0.000000 0.957134
0.975211 0.000000 0.221275
0.989858 0.000000 0.142060
0.121081 0.000000 0.992643
0.318892 0.000000 0.947791
0.631417 0.000000 0.775444
0.287216 0.000000 0.957866
0.730760 0.000000 0.682635
0.281414 0.000000 0.959586
0.791042 0.000000 0.611762
0.066974 0.000000 0.997755
0.988519 0.000000 0.151095
0.865711 0.000000 0.500544
0.140384 0.000000 0.990097
0.507901 0.000000 0.861416
0.827032 0.000000 0.562154
0.823581 0.000000 0.567198
0.080753 0.000000 0.996734
0.420713 0.000000 0.907194
0.114399 0.000000 0.993435
0.664660 0.000000 0.747146
0.992040 0.000000 0.125922
0.962784 0.000000 0.270271
0.981807 0.000000 0.189881
0.998738 0.000000 0.050214
0.121081 0.000000 0.992643
0.990646 0.000000 0.136460
0.152866 0.000000 0.988247
0.996658 0.000000 0.081688
0.106113 0.000000 0.994354
0.999139 0.000000 0.041493
0.734844 0.000000 0.678236
0.482614 0.000000 0.875833
0.080753 0.000000 0.996734
0.941749 0.000000 0.336317
0.127463 0.000000 0.991843
0.399709 0.000000 0.916642
0.491238 0.000000 0.871025
0.991120 0.000000 0.132973
0.530671 0.000000 0.847578
0.821899 0.000000 0.569634
0.991739 0.000000 0.128276
0.999033 0.000000 0.043958
0.998559 0.000000 0.053668
0.759130 0.000000 0.650939
0.930818 0.000000 0.365484
0.054284 0.000000 0.998526
0.765089 0.000000 0.643925
0.285434 0.000000 0.958398
0.817823 0.000000 0.575470
0.991304 0.000000 0.131588
0.155211 0.000000 0.987881
0.967707 0.000000 0.252079
0.933157 0.000000 0.359470
0.978681 0.000000 0.205387
0.141803 0.000000 0.989895
0.337222 0.000000 0.941425
0.289646 0.000000 0.957134
0.494573 0.000000 0.869136
0.732154 0.000000 0.681139
0.946369 0.000000 0.323088
0.990726 0.000000 0.135877
0.961365 0.000000 0.275276
0.920730 0.000000 0.390201
0.843233 0.000000 0.537548
0.927739 0.000000 0.373231
0.998738 0.000000 0.050214
0.979816 0.000000 0.199901
0.080753 0.000000 0.996734
0.810429 0.000000 0.585837
0.400695 0.000000 0.916212
0.988607 0.000000 0.150521
0.888246 0.000000 0.459367
0.066974 0.000000 0.997755
0.523587 0.000000 0.851972
0.919801 0.000000 0.392385