# vtk DataFile Version 3.1
director profile
ASCII
DATASET UNSTRUCTURED_GRID

POINTS 19478 FLOAT
0.473976 9.150232 0.261820
0.622616 5.026745 2.327995
2.220093 6.682536 1.862893
0.149393 3.806346 0.798049
1.642859 1.077007 0.770355
0.119693 6.561064 0.331005
5.774626 7.207401 0.277596
0.979169 4.982041 2.327995
0.848362 0.307162 0.480370
0.879826 0.497384 0.271530
0.376108 0.995548 0.264129
0.120779 0.920276 0.588157
0.749716 0.444665 0.781631
1.482868 5.043554 1.868159
0.151354 0.273755 1.138130
0.272132 0.807779 0.889417
5.196352 0.426963 2.235933
1.168542 1.011373 0.436560
4.068255 4.601455 0.929835
3.458661 6.973621 2.178289
4.132026 9.709740 1.999200
5.457236 9.857062 0.384441
5.814634 6.190728 0.550840
0.266402 0.891238 2.036361
0.468137 0.137503 1.334794
0.151354 0.461969 1.343513
0.151354 0.841267 1.159349
0.723705 2.005152 2.050452
1.459200 0.152436 0.347760
1.785294 0.152436 0.507694
1.491073 0.435983 0.127747
0.090798 1.529897 0.352849
0.272079 1.557988 0.120346
0.496189 9.344304 0.966722
1.486827 9.471197 1.734787
0.817569 5.579056 0.576956
1.123492 0.675106 0.957834
13.350300 0.140476 0.520965
13.300196 0.865199 0.124907
10.133240 2.428233 2.174392
0.783149 4.162688 2.016737
0.262939 1.740839 1.440771
2.666384 0.750839 2.092721
0.575107 0.846287 1.507390
0.458305 3.036628 0.966446
0.858500 0.272906 1.650204
0.937722 0.658073 1.550990
0.257871 3.110882 2.022459
0.262939 1.327665 1.433990
3.226095 1.365388 0.641014
8.937396 2.756835 0.661395
7.266575 2.594740 1.889890
1.936319 1.657111 1.624697
0.790316 6.684335 0.556888
0.149393 3.488624 0.955193
1.610987 0.793459 0.990369
0.386156 3.492545 0.164404
0.414656 5.408768 2.327995
0.584045 6.992254 0.120712
2.768557 9.881212 0.495289
2.091933 0.474884 2.261006
0.211577 1.184623 0.496633
0.351286 2.144361 0.252026
0.272573 4.632936 1.686553
0.287939 9.448611 2.390615
0.794433 7.333264 0.587727
0.201048 2.166132 0.442834
0.594531 0.135403 2.141627
0.160814 0.573617 2.147316
1.217137 1.679679 0.308813
0.739818 4.243270 0.566684
1.788503 3.540419 0.562452
2.012329 0.830698 0.576026
0.379746 4.685637 0.743312
1.155749 2.144739 1.852141
0.308912 2.749724 1.222538
2.738275 5.685709 2.188273
0.105588 1.130821 2.031718
0.419872 4.056645 0.939696
1.333619 6.624771 0.299620
1.094286 0.879404 1.919494
1.180984 0.316777 2.067996
1.944759 0.255856 1.402395
3.934203 0.413328 1.619236
0.529341 1.026405 1.720174
1.882739 1.416194 0.642608
1.873481 0.574842 0.242231
0.423794 0.562862 2.358600
0.529382 0.880484 2.247645
0.673794 0.312862 2.358600
0.120779 0.290978 0.563987
0.260488 2.493761 0.131680
0.487775 1.711202 1.793454
1.005306 1.266325 0.308813
0.713811 3.908952 1.829331
0.778707 1.261074 2.072858
0.355384 8.476582 2.400666
6.500914 9.109584 2.366498
4.541126 1.653769 1.850125
8.975612 3.860412 0.917057
8.596095 6.441761 0.340293
7.456522 6.408700 0.315408
2.322697 5.358212 0.978287
0.466018 7.087881 2.216364
3.402009 8.133572 0.588761
0.130816 5.409831 0.304734
2.329469 1.307444 0.333795
3.429555 0.636470 0.991908
1.323053 1.169207 2.060894
2.832753 3.562079 0.269125
2.832880 6.796815 0.616562
2.210380 0.363181 1.691307
1.420533 0.358834 2.377080
2.167014 6.144129 0.629207
2.632535 6.416969 0.313273
5.897317 4.884627 0.288915
4.317606 3.776399 2.170444
0.566790 7.820873 2.376212
1.096933 4.116351 2.177225
2.631927 0.255856 1.102031
1.959707 2.642268 0.650416
0.880569 5.669130 1.859082
1.110928 6.197812 0.752110
0.512670 4.052914 2.339512
0.119249 2.109802 2.016092
0.120779 0.540978 0.355653
0.372038 1.831875 2.255683
0.259644 2.903824 0.486892
3.352025 4.221275 2.224080
0.253990 3.789022 1.995332
1.774267 6.087132 0.315934
5.839773 0.468095 1.058210
6.628572 1.051866 2.024404
1.062701 1.368659 2.183813
2.679833 1.912841 0.690884
3.618125 5.362784 2.224080
3.996794 6.164249 1.553721
7.642369 4.586929 2.198954
4.132661 4.884282 1.884391
12.233715 9.688561 1.970998
6.840488 0.907827 1.279324
7.286144 0.273552 2.063948
5.017344 2.588806 2.167905
0.751012 4.564998 1.844731
2.744552 1.598378 0.333795
9.071343 0.702187 1.945420
8.300485 5.247621 2.227354
5.843569 4.158786 0.288915
0.639046 1.130715 0.572943
0.428161 2.744399 1.523369
0.149393 3.136522 0.515788
2.433254 4.475384 0.269125
2.858197 3.695023 2.144125
9.474460 9.859987 0.363492
9.751723 8.323494 2.206825
8.600695 0.716777 1.202870
11.161432 0.540564 1.633163
14.828945 2.609006 1.872671
11.079157 6.444386 0.325962
5.220850 0.226079 1.992692
6.766698 4.162517 1.913895
7.841652 6.403674 0.655701
0.463987 2.051300 0.751647
3.839305 0.258633 1.341269
5.344213 1.683555 0.609488
3.324093 0.564924 0.133862
1.520169 0.181374 2.209396
5.433692 0.157413 0.343344
0.515768 1.125907 2.389045
0.298354 5.682338 0.441291
0.566783 3.007251 1.540468
0.997497 6.424503 0.436176
3.367571 2.855006 0.310294
2.757601 2.200052 2.232089
3.834725 1.951477 0.617513
3.474768 0.121981 0.350894
3.300851 0.912888 0.774876
11.788874 1.733512 1.896320
8.505795 5.161290 0.352354
2.935796 9.630255 0.255340
1.393621 8.792877 0.754250
1.447050 6.398079 0.615554
1.108427 5.014348 1.696154
0.115368 3.991915 1.702661
2.037726 2.319975 2.232089
0.957147 0.135403 1.973943
3.107176 0.260839 0.465378
11.116113 4.909751 0.611894
12.480255 1.194642 0.458931
6.859404 0.139849 0.618340
7.644057 4.506598 0.646261
2.685724 0.394715 0.825244
1.748221 2.461475 1.900416
1.309910 6.033029 2.190934
0.994038 1.796929 2.183813
3.143297 1.273814 2.208795
2.731174 1.048329 2.208795
0.970819 2.013114 0.308813
2.090214 8.722275 2.160321
0.907355 3.576018 1.658147
0.502908 2.862527 2.366638
0.535071 1.056695 0.986361
3.153909 0.262020 2.072844
5.253561 6.710330 0.607733
6.497752 9.004180 2.038636
8.646427 6.952585 2.215293
7.883071 4.851901 1.926308
7.889310 6.058468 1.008055
6.984386 2.858355 1.604831
3.822883 0.121981 0.504385
5.579821 3.866479 0.924301
5.427201 4.651458 2.163915
2.987161 6.186470 0.313273
6.111277 2.660326 0.923175
6.904249 2.503576 2.165328
6.128696 5.483601 2.148245
5.275217 8.877354 1.995856
10.114665 9.482317 1.732679
8.564580 9.289440 0.607605
5.770579 6.036010 1.800840
0.892765 0.882552 0.580344
0.090798 1.918651 0.543657
7.747663 4.207013 0.322308
5.007691 1.870750 0.292905
6.976094 2.104570 0.290328
3.845072 0.977417 2.369999
6.314325 0.288530 1.988035
4.000113 0.415861 0.243643
1.698922 1.247604 1.769689
0.535310 0.344949 0.143783
0.845305 3.088162 0.457731
0.502108 7.295099 0.288107
0.514970 4.802489 0.100055
2.690041 4.523495 1.868204
3.369808 2.787325 1.917383
7.439351 0.457297 1.480328
6.802528 0.979022 0.821503
3.604258 1.080855 1.761013
5.103491 5.514673 0.285311
1.624520 3.818953 1.489677
1.724608 0.545019 2.377080
2.276000 2.688612 2.232089
3.514981 2.127286 0.974602
4.488958 3.438455 0.295444
7.022738 0.937304 2.332821
1.062369 0.137503 1.386617
0.443332 3.799177 2.152107
2.191867 0.547151 0.735960
4.097088 0.258633 1.050841
1.847255 4.395201 1.821349
0.422412 7.247496 1.655376
1.423551 6.846218 2.174620
0.491729 5.867970 0.843052
1.097684 3.475762 0.457731
1.731594 9.001925 1.735007
8.423872 9.606698 1.511886
5.290022 9.244863 2.336345
0.958417 8.853497 0.588083
0.141722 6.496553 2.138524
1.409288 3.429361 0.293327
2.574390 9.727297 0.141511
0.242796 8.406606 1.441503
3.641150 8.431420 0.285472
0.353737 1.803819 0.852470
0.422317 1.924970 0.120346
3.478392 0.669185 1.579932
13.834288 2.956547 1.483737
14.221495 5.302984 1.861208
10.538936 4.744679 2.174401
11.229361 1.092645 2.202007
10.253447 2.228880 0.299392
2.799248 0.107325 1.969116
0.524469 3.995492 1.516636
4.206036 8.855837 0.699268
9.432889 7.585222 2.145053
14.402462 8.096569 2.235831
9.843279 9.596878 1.670073
6.101071 9.708853 2.008764
2.337882 9.136569 0.426831
3.411868 9.902959 0.303212
3.891564 9.878445 1.957744
1.444864 9.819045 0.303232
0.157205 5.014662 1.939369
2.230781 0.730741 1.969801
1.671957 0.822398 1.602004
6.014556 2.826401 2.214942
7.631473 1.267058 2.202941
8.141991 0.552245 1.034967
2.039322 0.544555 1.802117
0.149393 3.497768 0.324981
0.138622 3.477454 2.155820
0.465912 5.979815 1.395135
5.498219 2.777971 1.882847
3.381475 1.023694 2.078794
3.171910 3.245837 0.579418
2.724918 5.204439 0.662353
6.479390 4.044051 0.628857
6.849233 5.587748 1.537606
1.227074 9.032228 0.120688
2.619783 9.221890 1.387341
3.184602 9.728683 1.202236
0.421148 7.472338 1.116519
0.543052 4.635486 1.531159
0.663943 7.869874 1.246431
4.447288 9.666010 0.129285
1.028245 8.901400 2.223242
3.063967 4.535167 0.618204
10.482939 1.607337 0.947011
12.811891 0.564948 0.261725
6.671039 4.697049 0.612869
7.140034 8.279678 0.879954
1.033167 4.104827 0.466629
2.978472 0.537258 0.248346
4.790403 0.127355 0.451572
8.808605 4.627546 0.955236
2.158237 0.255856 1.105013
0.699548 1.383377 0.429159
10.050081 0.571572 0.864784
4.557529 0.601538 0.109781
3.614423 0.288505 0.133862
4.956594 0.592426 0.264826
4.192381 0.464260 2.248069
2.434379 0.293510 2.383925
2.313132 4.887159 1.559139
0.434047 6.622412 1.398436
0.689437 5.793332 0.136557
0.325840 5.382948 0.124465
10.150629 1.437892 0.320613
8.078673 0.409299 1.666361
3.434639 6.382365 0.313273
0.498733 8.495233 0.850944
0.115368 4.317167 1.545863
2.374084 3.834321 2.144125
0.323328 4.429546 2.339512
1.113751 4.739952 0.302225
0.157205 4.953127 1.625797
5.356830 0.896292 1.731664
2.458916 0.107325 2.150197
1.227262 5.061373 0.618159
4.144654 9.152872 0.129285
6.261508 9.451240 2.366498
12.559898 9.807169 2.125581
13.687643 4.216991 2.166420
6.035560 3.856174 0.628857
5.069382 0.284769 0.453125
5.381328 0.695408 1.488423
5.387830 4.169091 0.584359
1.283657 5.415137 0.315934
3.202944 6.721947 1.866562
5.050233 4.119684 0.295444
5.922087 0.517027 2.357862
6.607826 0.373479 0.176979
7.061937 5.368375 0.597198
7.748344 9.562824 1.066569
3.910286 4.982963 0.634391
4.239257 2.289076 0.603199
1.597985 3.808304 0.864677
0.618215 7.934165 0.167395
1.744031 9.745525 2.011545
2.426273 9.616067 2.351444
8.398117 4.697945 0.674662
11.810427 3.588149 0.631807
9.873938 5.098630 1.560524
9.163563 9.407810 2.382369
3.804391 9.574658 0.243115
[...]
POINT_DATA 19478
VECTORS director FLOAT
0.112349 0.000000 0.993669
0.998437 0.000000 0.055891
0.931755 0.000000 0.363087
0.458689 0.000000 0.888597
0.441907 0.000000 0.897061
0.158866 0.000000 0.987300
0.122981 0.000000 0.992409
0.998437 0.000000 0.055891
0.257964 0.000000 0.966155
0.118895 0.000000 0.992907
0.113906 0.000000 0.993492
0.327889 0.000000 0.944716
0.448759 0.000000 0.893653
0.933047 0.000000 0.359755
0.649806 0.000000 0.760100
0.512874 0.000000 0.858464
0.992999 0.000000 0.118125
0.229127 0.000000 0.973396
0.536227 0.000000 0.844074
0.987619 0.000000 0.156873
0.961312 0.000000 0.275461
0.194559 0.000000 0.980891
0.303860 0.000000 0.952717
0.967953 0.000000 0.251131
0.745178 0.000000 0.666865
0.749111 0.000000 0.662444
0.660684 0.000000 0.750664
0.970310 0.000000 0.241863
0.170083 0.000000 0.985430
0.275835 0.000000 0.961205
0.021591 0.000000 0.999767
0.173485 0.000000 0.984837
0.016569 0.000000 0.999863
0.557188 0.000000 0.830386
0.896707 0.000000 0.442624
0.320697 0.000000 0.947182
0.552169 0.000000 0.833732
0.284481 0.000000 0.958682
0.019664 0.000000 0.999807
0.987200 0.000000 0.159485
0.964523 0.000000 0.264001
0.791175 0.000000 0.611590
0.976849 0.000000 0.213932
0.818009 0.000000 0.575206
0.557033 0.000000 0.830491
0.869835 0.000000 0.493343
0.834669 0.000000 0.550752
0.965541 0.000000 0.260253
0.788352 0.000000 0.615225
0.361561 0.000000 0.932348
0.374422 0.000000 0.927258
0.938251 0.000000 0.345956
0.861165 0.000000 0.508326
0.307768 0.000000 0.951461
0.550674 0.000000 0.834721
0.570442 0.000000 0.821338
0.046455 0.000000 0.998920
0.998437 0.000000 0.055891
0.016817 0.000000 0.999859
0.267733 0.000000 0.963493
0.994865 0.000000 0.101211
0.268612 0.000000 0.963249
0.105742 0.000000 0.994394
0.881739 0.000000 0.471737
0.999910 0.000000 0.013420
0.327613 0.000000 0.944812
0.233270 0.000000 0.972412
0.983410 0.000000 0.181396
0.984103 0.000000 0.177597
0.143978 0.000000 0.989581
0.314087 0.000000 0.949394
0.311358 0.000000 0.950293
0.320100 0.000000 0.947384
0.425369 0.000000 0.905020
0.929081 0.000000 0.369877
0.692260 0.000000 0.721649
0.988659 0.000000 0.150177
0.967157 0.000000 0.254180
0.541864 0.000000 0.840466
0.137801 0.000000 0.990460
0.945012 0.000000 0.327035
0.973121 0.000000 0.230292
0.774979 0.000000 0.631987
0.859275 0.000000 0.511514
0.892273 0.000000 0.451496
0.362569 0.000000 0.931957
0.099129 0.000000 0.995075
0.999382 0.000000 0.035141
0.993906 0.000000 0.110228
0.999382 0.000000 0.035141
0.312348 0.000000 0.949968
0.024260 0.000000 0.999706
0.913616 0.000000 0.406579
0.143978 0.000000 0.989581
0.923244 0.000000 0.384215
0.973876 0.000000 0.227080
0.999978 0.000000 0.006599
0.999556 0.000000 0.029784
0.928574 0.000000 0.371148
0.528887 0.000000 0.848692
0.165086 0.000000 0.986279
0.148406 0.000000 0.988927
0.563689 0.000000 0.825987
0.991342 0.000000 0.131302
0.328276 0.000000 0.944582
0.141238 0.000000 0.989976
0.160735 0.000000 0.986998
0.571300 0.000000 0.820741
0.972000 0.000000 0.234981
0.117274 0.000000 0.993100
0.346039 0.000000 0.938220
0.883257 0.000000 0.468889
0.999744 0.000000 0.022604
0.354078 0.000000 0.935216
0.146973 0.000000 0.989140
0.130602 0.000000 0.991435
0.986770 0.000000 0.162129
0.999731 0.000000 0.023194
0.987505 0.000000 0.157586
0.630990 0.000000 0.775791
0.367503 0.000000 0.930022
0.930813 0.000000 0.365497
0.430766 0.000000 0.902464
0.998843 0.000000 0.048085
0.964407 0.000000 0.264422
0.175359 0.000000 0.984505
0.994493 0.000000 0.104804
0.262238 0.000000 0.965003
0.992016 0.000000 0.126109
0.960586 0.000000 0.277984
0.148759 0.000000 0.988873
0.607642 0.000000 0.794211
0.965883 0.000000 0.258978
0.988200 0.000000 0.153169
0.392904 0.000000 0.919579
0.992016 0.000000 0.126109
0.835689 0.000000 0.549204
0.989722 0.000000 0.143007
0.936953 0.000000 0.349455
0.955864 0.000000 0.293810
0.719551 0.000000 0.694440
0.972485 0.000000 0.232965
0.986489 0.000000 0.163829
0.927209 0.000000 0.374545
0.160735 0.000000 0.986998
0.950620 0.000000 0.310358
0.992294 0.000000 0.123904
0.130602 0.000000 0.991435
0.318117 0.000000 0.948052
0.824199 0.000000 0.566301
0.281112 0.000000 0.959675
0.117274 0.000000 0.993100
0.983716 0.000000 0.179729
0.180594 0.000000 0.983558
0.990472 0.000000 0.137718
0.682565 0.000000 0.730825
0.864071 0.000000 0.503370
0.934144 0.000000 0.356896
0.155486 0.000000 0.987838
0.960086 0.000000 0.279705
0.943763 0.000000 0.330624
0.370836 0.000000 0.928698
0.430482 0.000000 0.902599
0.748102 0.000000 0.663584
0.341531 0.000000 0.939871
0.025740 0.000000 0.999669
0.990710 0.000000 0.135989
0.167128 0.000000 0.985935
0.999895 0.000000 0.014486
0.232251 0.000000 0.972656
0.830715 0.000000 0.556698
0.228874 0.000000 0.973456
0.144973 0.000000 0.989436
0.992687 0.000000 0.120715
0.346644 0.000000 0.937997
0.172178 0.000000 0.985066
0.444658 0.000000 0.895701
0.939752 0.000000 0.341858
0.173154 0.000000 0.984895
0.107978 0.000000 0.994153
0.432076 0.000000 0.901837
0.345397 0.000000 0.938457
0.884794 0.000000 0.465981
0.886844 0.000000 0.462069
0.992687 0.000000 0.120715
0.956449 0.000000 0.291898
0.248120 0.000000 0.968729
0.343065 0.000000 0.939312
0.243879 0.000000 0.969806
0.347171 0.000000 0.937802
0.364879 0.000000 0.931055
0.475011 0.000000 0.879980
0.940699 0.000000 0.339244
0.988929 0.000000 0.148391
0.988200 0.000000 0.153169
0.990655 0.000000 0.136393
0.990655 0.000000 0.136393
0.143978 0.000000 0.989581
0.985632 0.000000 0.168905
0.872482 0.000000 0.488647
0.999559 0.000000 0.029689
0.568206 0.000000 0.822886
0.973874 0.000000 0.227089
0.340411 0.000000 0.940277
0.968340 0.000000 0.249637
0.991247 0.000000 0.132023
0.946514 0.000000 0.322662
0.580260 0.000000 0.814431
0.854233 0.000000 0.519891
0.273676 0.000000 0.961822
0.533053 0.000000 0.846082
0.986041 0.000000 0.166500
0.146973 0.000000 0.989140
0.532406 0.000000 0.846489
0.986201 0.000000 0.165555
0.984215 0.000000 0.176977
0.960685 0.000000 0.277642
0.896073 0.000000 0.443907
0.340329 0.000000 0.940306
0.915642 0.000000 0.401994
0.322875 0.000000 0.946442
0.299212 0.000000 0.954187
0.153035 0.000000 0.988221
0.133286 0.000000 0.991078
0.131552 0.000000 0.991309
0.999624 0.000000 0.027409
0.959197 0.000000 0.282738
0.100082 0.000000 0.994979
0.906939 0.000000 0.421262
0.032471 0.000000 0.999473
0.243089 0.000000 0.970004
0.130058 0.000000 0.991506
0.002799 0.000000 0.999996
0.933058 0.000000 0.359726
0.944542 0.000000 0.328389
0.807307 0.000000 0.590132
0.472775 0.000000 0.881183
0.904443 0.000000 0.426595
0.128176 0.000000 0.991751
0.811035 0.000000 0.584998
0.999744 0.000000 0.022604
0.992687 0.000000 0.120715
0.561621 0.000000 0.827395
0.134993 0.000000 0.990847
0.998615 0.000000 0.052620
0.768167 0.000000 0.640249
0.984675 0.000000 0.174397
0.420848 0.000000 0.907131
0.603662 0.000000 0.797240
0.921149 0.000000 0.389211
0.871561 0.000000 0.490287
0.987225 0.000000 0.159332
0.485612 0.000000 0.874175
0.243089 0.000000 0.970004
0.896773 0.000000 0.442491
0.819760 0.000000 0.572707
0.998738 0.000000 0.050232
0.327842 0.000000 0.944733
0.983026 0.000000 0.183467
0.133570 0.000000 0.991039
0.030929 0.000000 0.999522
0.791479 0.000000 0.611197
0.128284 0.000000 0.991737
0.491189 0.000000 0.871053
0.016569 0.000000 0.999863
0.845326 0.000000 0.534251
0.808670 0.000000 0.588262
0.931339 0.000000 0.364153
0.987201 0.000000 0.159478
0.990016 0.000000 0.140956
0.137648 0.000000 0.990481
0.955488 0.000000 0.295030
0.821602 0.000000 0.570061
0.398130 0.000000 0.917329
0.983829 0.000000 0.179109
0.992991 0.000000 0.118193
0.876408 0.000000 0.481569
0.963080 0.000000 0.269216
0.222695 0.000000 0.974888
0.140216 0.000000 0.990121
0.953182 0.000000 0.302396
0.140229 0.000000 0.990119
0.949337 0.000000 0.314259
0.955625 0.000000 0.294586
0.853234 0.000000 0.521529
0.991215 0.000000 0.132259
0.990105 0.000000 0.140328
0.595038 0.000000 0.803697
0.915990 0.000000 0.401201
0.154828 0.000000 0.987941
0.985112 0.000000 0.171915
0.771856 0.000000 0.635798
0.936587 0.000000 0.350436
0.974783 0.000000 0.223155
0.322280 0.000000 0.946644
0.375025 0.000000 0.927015
0.353856 0.000000 0.935300
0.829632 0.000000 0.558311
0.016801 0.000000 0.999859
0.768482 0.000000 0.639871
0.682250 0.000000 0.731119
0.638587 0.000000 0.769549
0.827181 0.000000 0.561935
0.703870 0.000000 0.710329
0.022635 0.000000 0.999744
0.991944 0.000000 0.126673
0.347085 0.000000 0.937834
0.546030 0.000000 0.837766
0.112285 0.000000 0.993676
0.343686 0.000000 0.939084
0.507350 0.000000 0.861740
0.248942 0.000000 0.968518
0.103258 0.000000 0.994655
0.239032 0.000000 0.971012
0.550698 0.000000 0.834704
0.632559 0.000000 0.774512
0.224235 0.000000 0.974535
0.498451 0.000000 0.866918
0.009399 0.000000 0.999956
0.025740 0.000000 0.999669
0.114376 0.000000 0.993438
0.993938 0.000000 0.109942
0.999839 0.000000 0.017960
0.837702 0.000000 0.546127
0.773278 0.000000 0.634067
0.027568 0.000000 0.999620
0.019364 0.000000 0.999812
0.151898 0.000000 0.988396
0.875192 0.000000 0.483775
0.146973 0.000000 0.989140
0.490287 0.000000 0.871561
0.832748 0.000000 0.553653
0.983716 0.000000 0.179729
0.998843 0.000000 0.048085
0.139552 0.000000 0.990215
0.861544 0.000000 0.507684
0.895767 0.000000 0.444524
0.984449 0.000000 0.175673
0.347056 0.000000 0.937845
0.022635 0.000000 0.999744
0.999556 0.000000 0.029784
0.981376 0.000000 0.192095
0.986323 0.000000 0.164824
0.353856 0.000000 0.935300
0.240056 0.000000 0.970759
0.810537 0.000000 0.585688
0.325453 0.000000 0.945558
0.148759 0.000000 0.988873
0.932656 0.000000 0.360766
0.134993 0.000000 0.990847
0.999365 0.000000 0.035642
0.054979 0.000000 0.998488
0.333680 0.000000 0.942687
0.612138 0.000000 0.790751
0.357366 0.000000 0.933964
0.337516 0.000000 0.941320
0.498388 0.000000 0.866954
0.048483 0.000000 0.998824
0.963586 0.000000 0.267397
0.999200 0.000000 0.039994
0.382756 0.000000 0.923849
0.355728 0.000000 0.934590
0.838215 0.000000 0.545340
0.999819 0.000000 0.019016
0.099726 0.000000 0.995015
0.949660 0.000000 0.313283
0.949364 0.000000 0.314177
0.347085 0.000000 0.937834
0.424947 0.000000 0.905218
0.316733 0.000000 0.948515
0.999895 0.000000 0.014486
0.192803 0.000000 0.981237
0.236031 0.000000 0.971745
0.256537 0.000000 0.966534
0.988034 0.000000 0.154238
0.377257 0.000000 0.926108
0.804149 0.000000 0.594428
0.934999 0.000000 0.354649
0.528383 0.000000 0.849006
0.987505 0.000000 0.157586
0.249196 0.000000 0.968453
0.242348 0.000000 0.970189
0.417637 0.000000 0.908614
0.158284 0.000000 0.987394
0.971904 0.000000 0.235379
0.944714 0.000000 0.327896
0.929346 0.000000 0.369210
0.992016 0.000000 0.126109
0.310394 0.000000 0.950608
0.967715 0.000000 0.252048
0.998864 0.000000 0.047650
0.406230 0.000000 0.913771
0.928961 0.000000 0.370176
0.986516 0.000000 0.163667
0.622894 0.000000 0.782306
0.514986 0.000000 0.857199
0.347126 0.000000 0.937819
0.133286 0.000000 0.991078
0.648241 0.000000 0.761435
0.173334 0.000000 0.984863
0.988994 0.000000 0.147956
0.992560 0.000000 0.121753
0.128176 0.000000 0.991751
0.869674 0.000000 0.493627
0.990655 0.000000 0.136393
0.992687 0.000000 0.120715
0.324730 0.000000 0.945807
0.998615 0.000000 0.052620
0.748245 0.000000 0.663423
0.322638 0.000000 0.946522
0.604365 0.000000 0.796707
0.817057 0.000000 0.576557
0.332923 0.000000 0.942954
0.130916 0.000000 0.991393
0.137801 0.000000 0.990460
0.992294 0.000000 0.123904
0.917735 0.000000 0.397194
0.964914 0.000000 0.262565
0.964125 0.000000 0.265450
0.998864 0.000000 0.047650
0.433896 0.000000 0.900963
0.208087 0.000000 0.978110
0.135424 0.000000 0.990788
0.853688 0.000000 0.520785
0.845440 0.000000 0.534070
0.740965 0.000000 0.671544
0.328012 0.000000 0.944674
0.970600 0.000000 0.240700
0.459367 0.000000 0.888247
0.054979 0.000000 0.998488
0.944643 0.000000 0.328101
0.992058 0.000000 0.125785
0.363190 0.000000 0.931715
0.986201 0.000000 0.165555
0.032471 0.000000 0.999473
0.988725 0.000000 0.149744
0.342493 0.000000 0.939521
0.801843 0.000000 0.597534
0.937225 0.000000 0.348725
0.741275 0.000000 0.671202
0.713217 0.000000 0.700943
0.865663 0.000000 0.500627
0.985650 0.000000 0.168804
0.635308 0.000000 0.772259
0.885978 0.000000 0.463727
0.335551 0.000000 0.942022
0.511631 0.000000 0.859205
0.323139 0.000000 0.946352
0.012591 0.000000 0.999921
0.288483 0.000000 0.957485
0.946514 0.000000 0.322662
0.937363 0.000000 0.348353
0.927213 0.000000 0.374533
0.832167 0.000000 0.554525
0.170965 0.000000 0.985277
0.934472 0.000000 0.356036
0.988593 0.000000 0.150611
0.364122 0.000000 0.931351
0.519318 0.000000 0.854581
0.986770 0.000000 0.162129
0.332112 0.000000 0.943240
0.317539 0.000000 0.948245
0.999744 0.000000 0.022604
0.366360 0.000000 0.930473
0.738416 0.000000 0.674345
0.496941 0.000000 0.867785
0.484684 0.000000 0.874690
0.133286 0.000000 0.991078
0.997798 0.000000 0.066323
0.310318 0.000000 0.950633
0.224235 0.000000 0.974535
0.144973 0.000000 0.989436
0.999559 0.000000 0.029689
0.249555 0.000000 0.968361
0.816124 0.000000 0.577877
0.265222 0.000000 0.964188
0.203002 0.000000 0.979178
0.294799 0.000000 0.955559
0.988751 0.000000 0.149572
0.491757 0.000000 0.870733
0.046455 0.000000 0.998920
0.568118 0.000000 0.822947
0.344131 0.000000 0.938922
0.122981 0.000000 0.992409
0.025327 0.000000 0.999679
0.123545 0.000000 0.992339
0.501323 0.000000 0.865260
0.918703 0.000000 0.394948
0.847189 0.000000 0.531292
0.988751 0.000000 0.149572
0.328693 0.000000 0.944437
0.012591 0.000000 0.999921
0.857885 0.000000 0.513841
0.930913 0.000000 0.365240
0.835528 0.000000 0.549448
0.149194 0.000000 0.988808
0.133286 0.000000 0.991078
0.917124 0.000000 0.398603
0.983611 0.000000 0.180303
0.925656 0.000000 0.378367
0.617726 0.000000 0.786394
0.999759 0.000000 0.021932
0.657249 0.000000 0.753673
0.494373 0.000000 0.869250
0.466845 0.000000 0.884339
0.133286 0.000000 0.991078
0.574746 0.000000 0.818332
0.087161 0.000000 0.996194
0.434157 0.000000 0.900837
0.206421 0.000000 0.978463
0.992016 0.000000 0.126109
0.935718 0.000000 0.352749
0.439974 0.000000 0.898011
0.890795 0.000000 0.454405
0.835605 0.000000 0.549330
0.463144 0.000000 0.886283
0.950932 0.000000 0.309401
0.031713 0.000000 0.999497
0.908189 0.000000 0.418561
0.800966 0.000000 0.598710
0.918782 0.000000 0.394766
0.992687 0.000000 0.120715
0.949255 0.000000 0.314508
0.708609 0.000000 0.705602
0.114129 0.000000 0.993466
0.575631 0.000000 0.817709
0.307582 0.000000 0.951522
0.498724 0.000000 0.866761
0.721025 0.000000 0.692909
0.830985 0.000000 0.556295
0.824754 0.000000 0.565491
0.954296 0.000000 0.298863
0.374960 0.000000 0.927041
0.515639 0.000000 0.856806
0.206344 0.000000 0.978480
0.936587 0.000000 0.350436
0.991215 0.000000 0.132259
0.175289 0.000000 0.984517
0.142637 0.000000 0.989775
0.988903 0.000000 0.148560
0.543845 0.000000 0.839186
0.951262 0.000000 0.308385
0.559913 0.000000 0.828551
0.860614 0.000000 0.509258
0.986489 0.000000 0.163829
0.986489 0.000000 0.163829
0.993554 0.000000 0.113359
0.987225 0.000000 0.159332
0.988659 0.000000 0.150177
0.948834 0.000000 0.315774
0.852382 0.000000 0.522919
0.021591 0.000000 0.999767
0.986536 0.000000 0.163547
0.346039 0.000000 0.938220
0.932409 0.000000 0.361404
0.725031 0.000000 0.688716
0.550386 0.000000 0.834911
0.402947 0.000000 0.915223
0.170965 0.000000 0.985277
0.117900 0.000000 0.993026
0.828508 0.000000 0.559978
0.168768 0.000000 0.985656
0.992591 0.000000 0.121504
0.987719 0.000000 0.156240
0.468271 0.000000 0.883585
0.984832 0.000000 0.173511
0.481512 0.000000 0.876440
0.128176 0.000000 0.991751
0.240071 0.000000 0.970755
0.261368 0.000000 0.965239
0.535589 0.000000 0.844479
0.311676 0.000000 0.950189
0.602230 0.000000 0.798323
0.524610 0.000000 0.851343
0.840063 0.000000 0.542489
0.144490 0.000000 0.989506
0.315076 0.000000 0.949066
0.567799 0.000000 0.823167
0.124987 0.000000 0.992158
0.836103 0.000000 0.548572
0.985539 0.000000 0.169446
0.149194 0.000000 0.988808
0.929346 0.000000 0.369210
0.767907 0.000000 0.640562
0.990624 0.000000 0.136617
0.958918 0.000000 0.283685
0.999200 0.000000 0.039994
0.158284 0.000000 0.987394
0.128183 0.000000 0.991751
0.432907 0.000000 0.901439
0.990472 0.000000 0.137718
0.958844 0.000000 0.283932
0.985650 0.000000 0.168804
0.999878 0.000000 0.015609
0.940109 0.000000 0.340874
0.015760 0.000000 0.999876
0.701355 0.000000 0.712812
0.417296 0.000000 0.908771
0.824304 0.000000 0.566148
0.946263 0.000000 0.323398
0.552959 0.000000 0.833209
0.991944 0.000000 0.126673
0.684747 0.000000 0.728781
0.882635 0.000000 0.470059
0.016801 0.000000 0.999859
0.999559 0.000000 0.029689
0.236862 0.000000 0.971543
0.111811 0.000000 0.993730
0.128176 0.000000 0.991751
0.706272 0.000000 0.707940
0.992058 0.000000 0.125785
0.988659 0.000000 0.150177
0.880482 0.000000 0.474079
0.910326 0.000000 0.413892
0.837966 0.000000 0.545722
0.302132 0.000000 0.953266
0.988994 0.000000 0.147956
0.176318 0.000000 0.984333
0.986955 0.000000 0.160999
0.856417 0.000000 0.516284
0.299269 0.000000 0.954169
0.248206 0.000000 0.968707
0.144973 0.000000 0.989436
0.829030 0.000000 0.559204
0.545853 0.000000 0.837881
0.517997 0.000000 0.855383
0.318942 0.000000 0.947774
0.923614 0.000000 0.383323
0.480051 0.000000 0.877241
0.336840 0.000000 0.941562
0.164851 0.000000 0.986318
0.535650 0.000000 0.844440
0.932643 0.000000 0.360801
0.987225 0.000000 0.159332
0.983219 0.000000 0.182430
0.991247 0.000000 0.132023
0.877985 0.000000 0.478689
0.989561 0.000000 0.144112
0.932187 0.000000 0.361977
0.667605 0.000000 0.744515
0.986770 0.000000 0.162129
0.012147 0.000000 0.999926
0.259621 0.000000 0.965711
0.143978 0.000000 0.989581
0.009399 0.000000 0.999956
0.468490 0.000000 0.883469
0.455530 0.000000 0.890221
0.988034 0.000000 0.154238
0.843437 0.000000 0.537228
0.987880 0.000000 0.155222
0.326715 0.000000 0.945123
0.986222 0.000000 0.165428
0.981998 0.000000 0.188890
0.689310 0.000000 0.724466
0.419531 0.000000 0.907741
0.987225 0.000000 0.159332
0.235291 0.000000 0.971925
0.195414 0.000000 0.980721
0.846880 0.000000 0.531783
0.501266 0.000000 0.865293
0.943451 0.000000 0.331512
0.156812 0.000000 0.987628
0.356387 0.000000 0.934338
0.984215 0.000000 0.176977
0.311358 0.000000 0.950293
0.447070 0.000000 0.894499
0.959509 0.000000 0.281678
0.824143 0.000000 0.566382
0.145569 0.000000 0.989348
0.336672 0.000000 0.941622
0.025407 0.000000 0.999677
0.366584 0.000000 0.930385
0.457094 0.000000 0.889418
0.811658 0.000000 0.584132
0.988659 0.000000 0.150177
0.272577 0.000000 0.962134
0.297369 0.000000 0.954763
0.489109 0.000000 0.872223
0.985650 0.000000 0.168804
0.986489 0.000000 0.163829
0.967851 0.000000 0.251525
0.040109 0.000000 0.999195
0.832251 0.000000 0.554400
0.151898 0.000000 0.988396
0.992991 0.000000 0.118193
0.985622 0.000000 0.168966
0.987326 0.000000 0.158706
0.512124 0.000000 0.858911
0.948155 0.000000 0.317807
0.958131 0.000000 0.286331
0.109279 0.000000 0.994011
0.137801 0.000000 0.990460
0.317091 0.000000 0.948395
0.932383 0.000000 0.361471
0.855895 0.000000 0.517150
0.117274 0.000000 0.993100
0.131504 0.000000 0.991316
0.988051 0.000000 0.154126
0.985631 0.000000 0.168912
0.569947 0.000000 0.821681
0.360195 0.000000 0.932877
0.581863 0.000000 0.813287
0.842680 0.000000 0.538414
0.891845 0.000000 0.452341
0.363781 0.000000 0.931485
0.933074 0.000000 0.359686
0.343302 0.000000 0.939225
0.573452 0.000000 0.819239
0.326490 0.000000 0.945201
0.991856 0.000000 0.127361
0.356114 0.000000 0.934443
0.989561 0.000000 0.144112
0.991856 0.000000 0.127361
0.526321 0.000000 0.850286
0.394005 0.000000 0.919109
0.998553 0.000000 0.053786
0.862479 0.000000 0.506092
0.988593 0.000000 0.150611
0.172682 0.000000 0.984978
0.992560 0.000000 0.121753
0.939752 0.000000 0.341858
0.502736 0.000000 0.864440
0.940319 0.000000 0.340294
0.890689 0.000000 0.454613
0.151345 0.000000 0.988481
0.158284 0.000000 0.987394
0.999824 0.000000 0.018758
0.924700 0.000000 0.380698
0.027568 0.000000 0.999620
0.962455 0.000000 0.271440
0.988353 0.000000 0.152176
0.947648 0.000000 0.319318
0.992235 0.000000 0.124380
0.111564 0.000000 0.993757
0.933845 0.000000 0.357678
0.960743 0.000000 0.277439
0.987200 0.000000 0.159485
0.829852 0.000000 0.557983
0.972439 0.000000 0.233158