# vtk DataFile Version 3.1
director profile
ASCII
DATASET UNSTRUCTURED_GRID

POINTS 6037 FLOAT
3.128549 2.621390 0.499115
5.686030 0.420424 0.224308
6.580557 2.989908 0.862534
4.190964 2.548764 1.109147
1.515841 4.158346 2.211988
2.859363 4.108785 2.371826
4.191504 3.585378 2.151111
7.727605 5.399334 2.287543
9.180801 6.317879 1.602756
7.771252 3.941326 1.830901
5.929749 0.935990 2.168641
6.276553 0.442258 1.202497
6.950445 0.437980 1.538890
7.274093 3.741781 1.660509
6.687002 3.702831 0.709002
6.367802 4.524645 2.084390
4.017921 5.246545 0.360393
1.057422 4.674405 2.087064
0.513111 4.062605 1.137567
0.457131 0.773797 1.049424
0.439309 3.439705 0.223045
2.466379 2.723475 0.368727
3.981800 5.940168 1.812512
4.193552 4.075364 1.360924
1.679342 5.407969 2.158904
3.625839 3.209185 0.746697
1.647737 2.959722 0.473955
4.130581 2.268923 0.130388
1.548331 0.964594 1.442325
1.735214 2.335160 2.209094
3.840257 0.569932 0.559139
4.633378 0.361380 0.821383
3.692493 1.472507 0.826126
3.217194 1.111127 0.672847
2.984102 3.560314 1.642970
3.554348 4.520621 2.371826
4.008636 9.381001 1.543235
2.983490 8.120071 2.098061
3.723958 6.825638 0.289880
3.880441 6.291912 2.302275
0.513111 4.254248 1.511986
1.690230 1.850677 0.434345
5.048787 1.373570 0.752349
6.329567 4.674625 1.238106
2.006164 5.603196 1.740480
3.647636 7.864860 1.156854
1.373765 6.763289 1.958743
1.581640 7.286862 0.323356
5.800501 7.158862 0.868878
10.933912 8.505754 2.298985
10.472224 7.542657 0.540121
7.826310 7.877186 0.116949
3.248319 9.365829 0.982013
4.278600 7.189805 0.704113
7.337424 9.138148 0.221511
10.526888 9.210257 0.536471
12.049341 4.981964 0.207967
13.879465 5.241055 0.756751
14.947920 2.902926 2.083236
15.340477 5.487565 1.633816
17.245470 5.868486 0.981875
9.874361 5.923281 0.297005
3.702193 4.505734 0.255826
0.578692 2.097064 0.944578
0.458419 3.255657 2.245951
3.453567 2.338149 2.184725
3.897699 3.648688 0.386214
2.456897 5.407831 0.142362
3.037472 3.847838 0.954978
2.508872 1.614432 0.329117
7.990083 0.926519 0.338054
8.926293 0.468871 0.980877
8.132125 1.598387 0.706491
11.120533 2.821452 0.789962
12.906954 8.079620 2.177486
12.912554 5.987973 0.089317
11.011038 6.162053 0.126684
7.353498 5.967996 2.390268
3.221861 5.449100 1.635907
0.580974 2.757127 1.650161
4.095578 2.215344 2.381421
2.731688 3.402895 2.175131
1.091804 3.379110 1.121038
0.392873 7.008611 2.391757
0.727261 9.636377 1.713572
1.270679 9.636377 1.502667
0.687360 9.000857 1.972077
0.543418 9.595499 1.228379
1.461137 7.223932 2.303758
1.780599 3.462740 2.015293
1.091137 5.033930 0.398221
2.039657 5.800010 2.412002
1.931869 8.342329 1.193602
0.446344 9.072199 2.375000
2.249571 9.631041 0.256602
0.921188 5.978232 0.138042
6.239680 4.968982 1.548706
10.413048 9.164623 0.204883
13.067826 8.746279 1.374973
8.819886 9.611988 1.535069
10.208255 8.726927 1.347804
11.927227 9.530140 1.850017
9.915077 8.743089 0.099767
11.070402 2.643833 0.131047
12.719168 2.118017 0.613318
19.223419 1.448169 1.194664
20.335365 5.073856 0.235815
23.748058 4.296206 0.110274
27.591841 3.388162 1.711681
32.313000 4.035892 2.419316
31.828529 0.918749 0.527296
26.478363 1.677532 0.353615
19.498398 1.470972 0.832775
18.432138 0.948108 0.550213
15.545326 1.323987 2.231821
14.124355 0.965821 2.180157
13.690358 0.867993 2.396336
11.023776 1.025721 0.801699
11.858401 0.476785 2.174619
10.247031 2.823012 1.265374
9.266834 3.974840 0.072531
9.870525 1.044973 1.941845
6.546960 0.880238 1.377135
5.890471 1.035006 0.350890
3.206653 1.488437 2.082425
1.204175 0.487472 2.178489
0.316215 4.535481 2.215237
0.543418 9.157776 1.037193
0.751845 7.837265 1.542760
5.063761 9.623753 0.101722
4.970675 3.999735 0.113465
4.815751 2.688422 0.130388
2.430180 1.073236 0.102752
0.500000 0.987472 2.405790
0.774634 4.019423 2.340162
1.331008 5.913177 2.287077
3.265263 1.754001 1.362060
5.690169 0.869440 2.396347
3.848665 1.365632 2.279120
1.611538 1.309482 0.207980
5.571235 2.425657 0.256970
5.605697 1.626772 0.622901
5.623527 2.228668 2.381421
6.558656 1.381817 2.178787
11.183588 1.040905 1.711265
15.858839 0.458243 1.921747
15.872890 0.840095 1.556069
16.479229 0.934666 1.904030
13.130743 2.737955 0.239260
11.705038 3.905145 1.231726
10.950815 8.099637 1.941394
7.333804 6.967585 0.214739
1.121853 7.665570 0.507169
2.843159 9.365829 0.640498
5.984138 7.242278 0.575827
10.827026 7.192797 1.785921
12.565589 4.279469 0.225337
16.747595 2.921434 1.014687
19.827244 2.155493 0.121665
18.877686 1.019511 0.799204
17.120338 0.476423 1.862170
12.090759 4.805675 1.115588
6.984501 7.231451 1.357947
6.828428 6.740196 0.516995
4.909988 7.321330 0.104567
2.801554 9.631041 0.093773
0.991435 9.562277 0.885738
3.639333 8.953618 0.634292
1.433265 9.631041 0.287829
6.617489 9.530951 1.524142
8.532961 9.210981 2.395748
8.387995 6.800858 0.808532
8.832273 9.611988 1.742397
6.335872 8.617620 0.738169
9.802076 9.584799 1.093314
8.128392 7.348981 0.663452
7.026147 6.966554 1.616258
5.830599 9.282123 2.283164
9.812428 5.307340 2.129012
7.249534 4.557529 2.083802
5.688714 5.647388 0.204309
2.632101 6.085421 0.327675
2.556068 9.168148 2.406150
0.448017 9.562277 0.721642
0.933265 9.193317 0.471642
0.513111 4.569381 1.289718
0.500000 1.137465 0.230228
1.070407 0.637465 0.528582
1.154240 2.279529 2.405790
1.721539 3.640896 0.925491
2.912572 5.801488 0.923954
3.148591 9.381001 1.417427
0.513111 5.596509 1.608388
0.985248 9.631041 0.125000
3.613797 8.368292 0.435709
2.946067 4.601609 0.142362
2.686302 2.697401 2.303305
4.296315 4.808453 0.761018
5.247097 5.808325 0.673330
5.980232 6.371168 2.390273
7.755217 2.182247 2.406493
4.391296 0.932203 2.175467
1.779453 5.408149 0.909238
1.133704 8.936680 2.172907
0.636606 7.689363 0.957230
1.628041 8.928106 0.821051
4.769244 9.587789 0.871867
8.357352 7.875801 1.270863
11.835899 8.827078 1.960199
15.196960 4.036585 0.118031
15.990339 0.907814 0.673048
16.717085 2.497017 1.187586
14.627950 4.350389 0.224718
13.689034 5.300596 1.192605
14.802965 3.294892 0.361282
16.790047 1.422068 0.825469
14.969958 0.433732 2.396644
16.865070 4.144716 2.384076
15.806432 3.394764 0.989792
13.687819 2.039037 0.104472
13.277363 5.245528 2.253800
9.816269 9.272559 1.961917
9.872496 9.605158 2.291987
6.926965 7.616904 2.390268
8.332919 9.135025 0.222065
7.065142 9.029831 0.790969
5.804799 9.623753 0.206284
6.811276 9.678328 1.865597
2.570271 9.365829 0.835820
0.316215 5.125924 2.375076
3.664145 6.211061 0.689852
5.527259 3.097598 0.370435
8.812476 5.981350 0.701754
5.544902 5.313810 1.883821
4.119225 4.356466 2.269690
4.557554 6.342313 2.390273
6.467397 2.235183 1.938251
9.698283 0.874320 2.394845
11.080772 0.564120 1.516758
9.739513 1.226997 1.471759
10.766891 3.975382 0.072531
9.284517 4.058519 0.836220
11.067167 4.013652 0.794741
9.595894 5.416989 0.447184
7.514302 4.732771 0.682706
7.826676 9.556560 0.326627
7.238966 6.231803 1.686134
7.566550 5.769846 1.535746
4.177860 5.036219 1.239364
1.530446 4.099524 0.260179
5.338538 3.797484 1.374138
3.225180 5.314030 2.283828
5.298345 5.179181 0.816345
8.192022 3.109147 0.397591
7.701502 4.467377 0.099742
8.296465 7.272249 1.145154
5.210294 2.449827 1.136055
3.692628 0.401219 0.215409
1.035823 1.314993 1.025789
0.457131 0.408962 1.227075
4.961437 0.432827 2.396347
6.976308 2.605330 2.406493
7.746836 2.729052 2.140789
9.123608 6.892138 1.253963
8.067373 5.732608 0.097791
8.993713 0.412103 0.105573
9.632018 0.916619 1.022165
12.405104 2.879949 2.145005
11.787924 1.480932 0.835914
12.189894 0.388129 0.522387
10.224057 0.447748 1.087736
10.317101 2.353089 0.685645
7.998200 4.932329 1.149508
6.998212 7.463467 0.116949
12.709226 8.606663 0.827820
14.628371 6.310186 2.240423
12.001925 6.297411 1.375830
14.243227 7.435061 0.276050
12.431457 8.502791 2.299115
6.138153 8.768101 0.378134
2.387990 5.294803 2.283828
0.459786 6.789992 0.138042
4.042428 9.038426 0.093773
5.696321 9.587789 0.570548
9.684009 7.004052 0.515997
12.483509 7.910774 0.234305
16.446465 6.353986 2.413110
17.812828 9.441336 1.101542
13.468510 7.885180 1.401161
14.367653 7.109348 1.736459
12.776842 6.138292 0.633527
12.216602 5.472804 0.695014
13.802372 3.451427 2.123487
13.609042 3.861816 1.724262
14.990679 1.792032 0.593289
14.856083 1.739251 0.348262
17.870163 0.476423 1.966009
15.000495 0.412183 0.105011
12.187608 2.039519 0.104472
5.648251 0.499376 1.938982
2.899996 0.433429 2.397699
7.451699 1.541101 0.359062
8.376852 1.014016 1.964317
10.958065 0.447748 0.983543
12.328989 0.911046 2.278734
8.518201 1.338621 0.226403
7.691005 1.129516 0.570821
7.248445 1.543115 1.353893
3.547802 0.902576 1.023957
0.439309 2.809482 0.105228
1.142848 4.324392 0.942020
1.094085 3.521031 1.570045
1.091201 1.487784 1.789825
1.159666 2.353046 1.295348
5.942367 3.851143 0.587370
6.708474 4.097194 1.122064
9.539808 3.686275 2.124398
13.881330 2.323432 0.239260
20.363991 1.423333 0.693974
21.661064 2.136218 1.064342
18.353956 4.752359 1.462517
18.617960 7.407201 0.609492
18.521124 9.196295 0.230214
16.767696 8.665487 0.729035
18.466322 8.982139 1.024986
15.799793 8.438189 1.902249
15.613147 6.364972 1.090009
10.815527 7.887892 0.348365
8.752423 8.720970 0.321832
6.297194 7.210734 2.280541
6.077612 7.143738 1.246011
5.294801 8.179090 0.980210
5.273760 6.803748 0.716488
1.388451 7.508086 1.178326
1.014793 6.526419 2.178834
3.569180 7.319724 2.082184
7.997065 6.388285 2.390268
7.565233 7.821953 1.394546
8.861677 4.754521 0.917527
8.922333 6.053756 1.362221
7.787610 7.212477 2.390268
7.184639 4.994809 1.518083
5.487059 5.075007 0.317774
5.818445 5.345476 0.515462
8.167391 4.378445 0.249921
7.640620 5.374423 0.545400
9.231467 5.465682 2.274839
10.967289 8.587620 1.200591
6.175577 9.004224 1.258672
5.787615 9.530951 1.416618
4.380067 9.623753 0.195495
5.661798 7.886258 0.378138
6.951873 9.678328 2.284148
8.462173 5.892813 2.165107
4.896423 3.306306 2.279284
1.264957 6.479730 1.416794
4.734996 7.744372 0.261189
7.109549 6.482965 1.067813
6.303236 5.223693 1.083912
5.341595 1.460813 1.283815
6.094636 2.468118 1.398318
3.591899 4.924673 0.986223
0.939309 1.809482 0.105228
[...]
POINT_DATA 6037
VECTORS director FLOAT
0.707107 0.000000 0.707107
0.707107 0.000000 0.707107
0.707107 0.000000 0.707107
0.707107 0.000000 0.707107
0.707107 0.000000 0.707107
0.707107 0.000000 0.707107
0.707107 0.000000 0.707107
0.707107 0.000000 0.707107
0.707107 0.000000 0.707107
0.707107 0.000000 0.707107
0.707107 0.000000 0.707107
0.707107 0.000000 0.707107
0.707107 0.000000 0.707107
0.707107 0.000000 0.707107
0.707107 0.000000 0.707107
0.707107 0.000000 0.707107
0.707107 0.000000 0.707107
0.707107 0.000000 0.707107
0.707107 0.000000 0.707107
0.707107 0.000000 0.707107
0.707107 0.000000 0.707107
0.707107 0.000000 0.707107
0.707107 0.000000 0.707107
0.707107 0.000000 0.707107
0.707107 0.000000 0.707107
0.707107 0.000000 0.707107
0.707107 0.000000 0.707107
0.707107 0.000000 0.707107
0.707107 0.000000 0.707107
0.707107 0.000000 0.707107
0.707107 0.000000 0.707107
0.707107 0.000000 0.707107
0.707107 0.000000 0.707107
0.707107 0.000000 0.707107
0.707107 0.000000 0.707107
0.707107 0.000000 0.707107
0.707107 0.000000 0.707107
0.707107 0.000000 0.707107
0.707107 0.000000 0.707107
0.707107 0.000000 0.707107
0.707107 0.000000 0.707107
0.707107 0.000000 0.707107
0.707107 0.000000 0.707107
0.707107 0.000000 0.707107
0.707107 0.000000 0.707107
0.707107 0.000000 0.707107
0.707107 0.000000 0.707107
0.707107 0.000000 0.707107
0.707107 0.000000 0.707107
0.707107 0.000000 0.707107
0.707107 0.000000 0.707107
0.707107 0.000000 0.707107
0.707107 0.000000 0.707107
0.707107 0.000000 0.707107
0.707107 0.000000 0.707107
0.707107 0.000000 0.707107
0.707107 0.000000 0.707107
0.707107 0.000000 0.707107
0.707107 0.000000 0.707107
0.707107 0.000000 0.707107
0.707107 0.000000 0.707107
0.707107 0.000000 0.707107
0.707107 0.000000 0.707107
0.707107 0.000000 0.707107
0.707107 0.000000 0.707107
0.707107 0.000000 0.707107
0.707107 0.000000 0.707107
0.707107 0.000000 0.707107
0.707107 0.000000 0.707107
0.707107 0.000000 0.707107
0.707107 0.000000 0.707107
0.707107 0.000000 0.707107
0.707107 0.000000 0.707107
0.707107 0.000000 0.707107
0.707107 0.000000 0.707107
0.707107 0.000000 0.707107
0.707107 0.000000 0.707107
0.707107 0.000000 0.707107
0.707107 0.000000 0.707107
0.707107 0.000000 0.707107
0.707107 0.000000 0.707107
0.707107 0.000000 0.707107
0.707107 0.000000 0.707107
0.707107 0.000000 0.707107
0.707107 0.000000 0.707107
0.707107 0.000000 0.707107
0.707107 0.000000 0.707107
0.707107 0.000000 0.707107
0.707107 0.000000 0.707107
0.707107 0.000000 0.707107
0.707107 0.000000 0.707107
0.707107 0.000000 0.707107
0.707107 0.000000 0.707107
0.707107 0.000000 0.707107
0.707107 0.000000 0.707107
0.707107 0.000000 0.707107
0.707107 0.000000 0.707107
0.707107 0.000000 0.707107
0.707107 0.000000 0.707107
0.707107 0.000000 0.707107
0.707107 0.000000 0.707107
0.707107 0.000000 0.707107
0.707107 0.000000 0.707107
0.707107 0.000000 0.707107
0.707107 0.000000 0.707107
0.707107 0.000000 0.707107
0.707107 0.000000 0.707107
0.707107 0.000000 0.707107
0.707107 0.000000 0.707107
0.707107 0.000000 0.707107
0.707107 0.000000 0.707107
0.707107 0.000000 0.707107
0.707107 0.000000 0.707107
0.707107 0.000000 0.707107
0.707107 0.000000 0.707107
0.707107 0.000000 0.707107
0.707107 0.000000 0.707107
0.707107 0.000000 0.707107
0.707107 0.000000 0.707107
0.707107 0.000000 0.707107
0.707107 0.000000 0.707107
0.707107 0.000000 0.707107
0.707107 0.000000 0.707107
0.707107 0.000000 0.707107
0.707107 0.000000 0.707107
0.707107 0.000000 0.707107
0.707107 0.000000 0.707107
0.707107 0.000000 0.707107
0.707107 0.000000 0.707107
0.707107 0.000000 0.707107
0.707107 0.000000 0.707107
0.707107 0.000000 0.707107
0.707107 0.000000 0.707107
0.707107 0.000000 0.707107
0.707107 0.000000 0.707107
0.707107 0.000000 0.707107
0.707107 0.000000 0.707107
0.707107 0.000000 0.707107
0.707107 0.000000 0.707107
0.707107 0.000000 0.707107
0.707107 0.000000 0.707107
0.707107 0.000000 0.707107
0.707107 0.000000 0.707107
0.707107 0.000000 0.707107
0.707107 0.000000 0.707107
0.707107 0.000000 0.707107
0.707107 0.000000 0.707107
0.707107 0.000000 0.707107
0.707107 0.000000 0.707107
0.707107 0.000000 0.707107
0.707107 0.000000 0.707107
0.707107 0.000000 0.707107
0.707107 0.000000 0.707107
0.707107 0.000000 0.707107
0.707107 0.000000 0.707107
0.707107 0.000000 0.707107
0.707107 0.000000 0.707107
0.707107 0.000000 0.707107
0.707107 0.000000 0.707107
0.707107 0.000000 0.707107
0.707107 0.000000 0.707107
0.707107 0.000000 0.707107
0.707107 0.000000 0.707107
0.707107 0.000000 0.707107
0.707107 0.000000 0.707107
0.707107 0.000000 0.707107
0.707107 0.000000 0.707107
0.707107 0.000000 0.707107
0.707107 0.000000 0.707107
0.707107 0.000000 0.707107
0.707107 0.000000 0.707107
0.707107 0.000000 0.707107
0.707107 0.000000 0.707107
0.707107 0.000000 0.707107
0.707107 0.000000 0.707107
0.707107 0.000000 0.707107
0.707107 0.000000 0.707107
0.707107 0.000000 0.707107
0.707107 0.000000 0.707107
0.707107 0.000000 0.707107
0.707107 0.000000 0.707107
0.707107 0.000000 0.707107
0.707107 0.000000 0.707107
0.707107 0.000000 0.707107
0.707107 0.000000 0.707107
0.707107 0.000000 0.707107
0.707107 0.000000 0.707107
0.707107 0.000000 0.707107
0.707107 0.000000 0.707107
0.707107 0.000000 0.707107
0.707107 0.000000 0.707107
0.707107 0.000000 0.707107
0.707107 0.000000 0.707107
0.707107 0.000000 0.707107
0.707107 0.000000 0.707107
0.707107 0.000000 0.707107
0.707107 0.000000 0.707107
0.707107 0.000000 0.707107
0.707107 0.000000 0.707107
0.707107 0.000000 0.707107
0.707107 0.000000 0.707107
0.707107 0.000000 0.707107
0.707107 0.000000 0.707107
0.707107 0.000000 0.707107
0.707107 0.000000 0.707107
0.707107 0.000000 0.707107
0.707107 0.000000 0.707107
0.707107 0.000000 0.707107
0.707107 0.000000 0.707107
0.707107 0.000000 0.707107
0.707107 0.000000 0.707107
0.707107 0.000000 0.707107
0.707107 0.000000 0.707107
0.707107 0.000000 0.707107
0.707107 0.000000 0.707107
0.707107 0.000000 0.707107
0.707107 0.000000 0.707107
0.707107 0.000000 0.707107
0.707107 0.000000 0.707107
0.707107 0.000000 0.707107
0.707107 0.000000 0.707107
0.707107 0.000000 0.707107
0.707107 0.000000 0.707107
0.707107 0.000000 0.707107
0.707107 0.000000 0.707107
0.707107 0.000000 0.707107
0.707107 0.000000 0.707107
0.707107 0.000000 0.707107
0.707107 0.000000 0.707107
0.707107 0.000000 0.707107
0.707107 0.000000 0.707107
0.707107 0.000000 0.707107
0.707107 0.000000 0.707107
0.707107 0.000000 0.707107
0.707107 0.000000 0.707107
0.707107 0.000000 0.707107
0.707107 0.000000 0.707107
0.707107 0.000000 0.707107
0.707107 0.000000 0.707107
0.707107 0.000000 0.707107
0.707107 0.000000 0.707107
0.707107 0.000000 0.707107
0.707107 0.000000 0.707107
0.707107 0.000000 0.707107
0.707107 0.000000 0.707107
0.707107 0.000000 0.707107
0.707107 0.000000 0.707107
0.707107 0.000000 0.707107
0.707107 0.000000 0.707107
0.707107 0.000000 0.707107
0.707107 0.000000 0.707107
0.707107 0.000000 0.707107
0.707107 0.000000 0.707107
0.707107 0.000000 0.707107
0.707107 0.000000 0.707107
0.707107 0.000000 0.707107
0.707107 0.000000 0.707107
0.707107 0.000000 0.707107
0.707107 0.000000 0.707107
0.707107 0.000000 0.707107
0.707107 0.000000 0.707107
0.707107 0.000000 0.707107
0.707107 0.000000 0.707107
0.707107 0.000000 0.707107
0.707107 0.000000 0.707107
0.707107 0.000000 0.707107
0.707107 0.000000 0.707107
0.707107 0.000000 0.707107
0.707107 0.000000 0.707107
0.707107 0.000000 0.707107
0.707107 0.000000 0.707107
0.707107 0.000000 0.707107
0.707107 0.000000 0.707107
0.707107 0.000000 0.707107
0.707107 0.000000 0.707107
0.707107 0.000000 0.707107
0.707107 0.000000 0.707107
0.707107 0.000000 0.707107
0.707107 0.000000 0.707107
0.707107 0.000000 0.707107
0.707107 0.000000 0.707107
0.707107 0.000000 0.707107
0.707107 0.000000 0.707107
0.707107 0.000000 0.707107
0.707107 0.000000 0.707107
0.707107 0.000000 0.707107
0.707107 0.000000 0.707107
0.707107 0.000000 0.707107
0.707107 0.000000 0.707107
0.707107 0.000000 0.707107
0.707107 0.000000 0.707107
0.707107 0.000000 0.707107
0.707107 0.000000 0.707107
0.707107 0.000000 0.707107
0.707107 0.000000 0.707107
0.707107 0.000000 0.707107
0.707107 0.000000 0.707107
0.707107 0.000000 0.707107
0.707107 0.000000 0.707107
0.707107 0.000000 0.707107
0.707107 0.000000 0.707107
0.707107 0.000000 0.707107
0.707107 0.000000 0.707107
0.707107 0.000000 0.707107
0.707107 0.000000 0.707107
0.707107 0.000000 0.707107
0.707107 0.000000 0.707107
0.707107 0.000000 0.707107
0.707107 0.000000 0.707107
0.707107 0.000000 0.707107
0.707107 0.000000 0.707107
0.707107 0.000000 0.707107
0.707107 0.000000 0.707107
0.707107 0.000000 0.707107
0.707107 0.000000 0.707107
0.707107 0.000000 0.707107
0.707107 0.000000 0.707107
0.707107 0.000000 0.707107
0.707107 0.000000 0.707107
0.707107 0.000000 0.707107
0.707107 0.000000 0.707107
0.707107 0.000000 0.707107
0.707107 0.000000 0.707107
0.707107 0.000000 0.707107
0.707107 0.000000 0.707107
0.707107 0.000000 0.707107
0.707107 0.000000 0.707107
0.707107 0.000000 0.707107
0.707107 0.000000 0.707107
0.707107 0.000000 0.707107
0.707107 0.000000 0.707107
0.707107 0.000000 0.707107
0.707107 0.000000 0.707107
0.707107 0.000000 0.707107
0.707107 0.000000 0.707107
0.707107 0.000000 0.707107
0.707107 0.000000 0.707107
0.707107 0.000000 0.707107
0.707107 0.000000 0.707107
0.707107 0.000000 0.707107
0.707107 0.000000 0.707107
0.707107 0.000000 0.707107
0.707107 0.000000 0.707107
0.707107 0.000000 0.707107
0.707107 0.000000 0.707107
0.707107 0.000000 0.707107
0.707107 0.000000 0.707107
0.707107 0.000000 0.707107
0.707107 0.000000 0.707107
0.707107 0.000000 0.707107
0.707107 0.000000 0.707107
0.707107 0.000000 0.707107
0.707107 0.000000 0.707107
0.707107 0.000000 0.707107
0.707107 0.000000 0.707107
0.707107 0.000000 0.707107
0.707107 0.000000 0.707107
0.707107 0.000000 0.707107
0.707107 0.000000 0.707107
0.707107 0.000000 0.707107
0.707107 0.000000 0.707107
0.707107 0.000000 0.707107
0.707107 0.000000 0.707107
0.707107 0.000000 0.707107
0.707107 0.000000 0.707107
0.707107 0.000000 0.707107
0.707107 0.000000 0.707107
0.707107 0.000000 0.707107
0.707107 0.000000 0.707107
0.707107 0.000000 0.707107
0.707107 0.000000 0.707107
0.707107 0.000000 0.707107
0.707107 0.000000 0.707107
0.707107 0.000000 0.707107
0.707107 0.000000 0.707107
0.707107 0.000000 0.707107
0.707107 0.000000 0.707107
0.707107 0.000000 0.707107
0.707107 0.000000 0.707107
0.707107 0.000000 0.707107
0.707107 0.000000 0.707107
0.707107 0.000000 0.707107
0.707107 0.000000 0.707107
0.707107 0.000000 0.707107
0.707107 0.000000 0.707107
0.707107 0.000000 0.707107
0.707107 0.000000 0.707107
0.707107 0.000000 0.707107
0.707107 0.000000 0.707107
0.707107 0.000000 0.707107
0.707107 0.000000 0.707107
0.707107 0.000000 0.707107
0.707107 0.000000 0.707107
0.707107 0.000000 0.707107
0.707107 0.000000 0.707107
0.707107 0.000000 0.707107
0.707107 0.000000 0.707107
0.707107 0.000000 0.707107
0.707107 0.000000 0.707107
0.707107 0.000000 0.707107
0.707107 0.000000 0.707107
0.707107 0.000000 0.707107
0.707107 0.000000 0.707107
0.707107 0.000000 0.707107
0.707107 0.000000 0.707107
0.707107 0.000000 0.707107
0.707107 0.000000 0.707107
0.707107 0.000000 0.707107
0.707107 0.000000 0.707107
0.707107 0.000000 0.707107
0.707107 0.000000 0.707107
0.707107 0.000000 0.707107
0.707107 0.000000 0.707107
0.707107 0.000000 0.707107
0.707107 0.000000 0.707107
0.707107 0.000000 0.707107
0.707107 0.000000 0.707107
0.707107 0.000000 0.707107
0.707107 0.000000 0.707107
0.707107 0.000000 0.707107
0.707107 0.000000 0.707107
0.707107 0.000000 0.707107
0.707107 0.000000 0.707107
0.707107 0.000000 0.707107
0.707107 0.000000 0.707107
0.707107 0.000000 0.707107
0.707107 0.000000 0.707107
0.707107 0.000000 0.707107
0.707107 0.000000 0.707107
0.707107 0.000000 0.707107
0.707107 0.000000 0.707107
0.707107 0.000000 0.707107
0.707107 0.000000 0.707107
0.707107 0.000000 0.707107
0.707107 0.000000 0.707107
0.707107 0.000000 0.707107
0.707107 0.000000 0.707107
0.707107 0.000000 0.707107
0.707107 0.000000 0.707107
0.707107 0.000000 0.707107
0.707107 0.000000 0.707107
0.707107 0.000000 0.707107
0.707107 0.000000 0.707107
0.707107 0.000000 0.707107
0.707107 0.000000 0.707107
0.707107 0.000000 0.707107
0.707107 0.000000 0.707107
0.707107 0.000000 0.707107
0.707107 0.000000 0.707107
0.707107 0.000000 0.707107
0.707107 0.000000 0.707107
0.707107 0.000000 0.707107
0.707107 0.000000 0.707107
0.707107 0.000000 0.707107
0.707107 0.000000 0.707107
0.707107 0.000000 0.707107
0.707107 0.000000 0.707107
0.707107 0.000000 0.707107
0.707107 0.000000 0.707107
0.707107 0.000000 0.707107
0.707107 0.000000 0.707107
0.707107 0.000000 0.707107
0.707107 0.000000 0.707107
0.707107 0.000000 0.707107
0.707107 0.000000 0.707107
0.707107 0.000000 0.707107
0.707107 0.000000 0.707107
0.707107 0.000000 0.707107
0.707107 0.000000 0.707107
0.707107 0.000000 0.707107
0.707107 0.000000 0.707107
0.707107 0.000000 0.707107
0.707107 0.000000 0.707107
0.707107 0.000000 0.707107
0.707107 0.000000 0.707107
0.707107 0.000000 0.707107
0.707107 0.000000 0.707107
0.707107 0.000000 0.707107
0.707107 0.000000 0.707107
0.707107 0.000000 0.707107
0.707107 0.000000 0.707107
0.707107 0.000000 0.707107
0.707107 0.000000 0.707107
0.707107 0.000000 0.707107
0.707107 0.000000 0.707107
0.707107 0.000000 0.707107
0.707107 0.000000 0.707107
0.707107 0.000000 0.707107
0.707107 0.000000 0.707107
0.707107 0.000000 0.707107
0.707107 0.000000 0.707107
0.707107 0.000000 0.707107
0.707107 0.000000 0.707107
0.707107 0.000000 0.707107
0.707107 0.000000 0.707107
0.707107 0.000000 0.707107
0.707107 0.000000 0.707107
0.707107 0.000000 0.707107
0.707107 0.000000 0.707107
0.707107 0.000000 0.707107
0.707107 0.000000 0.707107
0.707107 0.000000 0.707107
0.707107 0.000000 0.707107
0.707107 0.000000 0.707107
0.707107 0.000000 0.707107
0.707107 0.000000 0.707107
0.707107 0.000000 0.707107
0.707107 0.000000 0.707107
0.707107 0.000000 0.707107
0.707107 0.000000 0.707107
0.707107 0.000000 0.707107
0.707107 0.000000 0.707107
0.707107 0.000000 0.707107
0.707107 0.000000 0.707107
0.707107 0.000000 0.707107
0.707107 0.000000 0.707107
0.707107 0.000000 0.707107
0.707107 0.000000 0.707107
0.707107 0.000000 0.707107
0.707107 0.000000 0.707107
0.707107 0.000000 0.707107
0.707107 0.000000 0.707107
0.707107 0.000000 0.707107
0.707107 0.000000 0.707107
0.707107 0.000000 0.707107
0.707107 0.000000 0.707107
0.707107 0.000000 0.707107
0.707107 0.000000 0.707107
0.707107 0.000000 0.707107
0.707107 0.000000 0.707107
0.707107 0.000000 0.707107
0.707107 0.000000 0.707107
0.707107 0.000000 0.707107
0.707107 0.000000 0.707107
0.707107 0.000000 0.707107
0.707107 0.000000 0.707107
0.707107 0.000000 0.707107
0.707107 0.000000 0.707107
0.707107 0.000000 0.707107
0.707107 0.000000 0.707107
0.707107 0.000000 0.707107
0.707107 0.000000 0.707107
0.707107 0.000000 0.707107
0.707107 0.000000 0.707107
0.707107 0.000000 0.707107
0.707107 0.000000 0.707107
0.707107 0.000000 0.707107
0.707107 0.000000 0.707107
0.707107 0.000000 0.707107
0.707107 0.000000 0.707107
0.707107 0.000000 0.707107
0.707107 0.000000 0.707107
0.707107 0.000000 0.707107
0.707107 0.000000 0.707107
0.707107 0.000000 0.707107
0.707107 0.000000 0.707107
0.707107 0.000000 0.707107
0.707107 0.000000 0.707107
0.707107 0.000000 0.707107
0.707107 0.000000 0.707107
0.707107 0.000000 0.707107
0.707107 0.000000 0.707107
0.707107 0.000000 0.707107
0.707107 0.000000 0.707107
0.707107 0.000000 0.707107
0.707107 0.000000 0.707107
0.707107 0.000000 0.707107
0.707107 0.000000 0.707107
0.707107 0.000000 0.707107
0.707107 0.000000 0.707107
0.707107 0.000000 0.707107
0.707107 0.000000 0.707107
0.707107 0.000000 0.707107
0.707107 0.000000 0.707107
0.707107 0.000000 0.707107
0.707107 0.000000 0.707107
0.707107 0.000000 0.707107
0.707107 0.000000 0.707107
0.707107 0.000000 0.707107
0.707107 0.000000 0.707107
0.707107 0.000000 0.707107
0.707107 0.000000 0.707107
0.707107 0.000000 0.707107
0.707107 0.000000 0.707107
0.707107 0.000000 0.707107
0.707107 0.000000 0.707107
0.707107 0.000000 0.707107
0.707107 0.000000 0.707107
0.707107 0.000000 0.707107
0.707107 0.000000 0.707107
0.707107 0.000000 0.707107
0.707107 0.000000 0.707107
0.707107 0.000000 0.707107
0.707107 0.000000 0.707107
0.707107 0.000000 0.707107
0.707107 0.000000 0.707107
0.707107 0.000000 0.707107
0.707107 0.000000 0.707107
0.707107 0.000000 0.707107
0.707107 0.000000 0.707107
0.707107 0.000000 0.707107
0.707107 0.000000 0.707107
0.707107 0.000000 0.707107
0.707107 0.000000 0.707107
0.707107 0.000000 0.707107
0.707107 0.000000 0.707107
0.707107 0.000000 0.707107
0.707107 0.000000 0.707107
0.707107 0.000000 0.707107
0.707107 0.000000 0.707107
0.707107 0.000000 0.707107
0.707107 0.000000 0.707107
0.707107 0.000000 0.707107
0.707107 0.000000 0.707107
0.707107 0.000000 0.707107
0.707107 0.000000 0.707107
0.707107 0.000000 0.707107
0.707107 0.000000 0.707107
0.707107 0.000000 0.707107
0.707107 0.000000 0.707107
0.707107 0.000000 0.707107
0.707107 0.000000 0.707107
0.707107 0.000000 0.707107
0.707107 0.000000 0.707107
0.707107 0.000000 0.707107
0.707107 0.000000 0.707107
0.707107 0.000000 0.707107
0.707107 0.000000 0.707107
0.707107 0.000000 0.707107
0.707107 0.000000 0.707107
0.707107 0.000000 0.707107
0.707107 0.000000 0.707107
0.707107 0.000000 0.707107
0.707107 0.000000 0.707107
0.707107 0.000000 0.707107
0.707107 0.000000 0.707107
0.707107 0.000000 0.707107
0.707107 0.000000 0.707107
0.707107 0.000000 0.707107
0.707107 0.000000 0.707107
0.707107 0.000000 0.707107
0.707107 0.000000 0.707107
0.707107 0.000000 0.707107
0.707107 0.000000 0.707107
0.707107 0.000000 0.707107
0.707107 0.000000 0.707107
0.707107 0.000000 0.707107
0.707107 0.000000 0.707107
0.707107 0.000000 0.707107
0.707107 0.000000 0.707107
0.707107 0.000000 0.707107
0.707107 0.000000 0.707107
0.707107 0.000000 0.707107
0.707107 0.000000 0.707107
0.707107 0.000000 0.707107
0.707107 0.000000 0.707107
0.707107 0.000000 0.707107
0.707107 0.000000 0.707107
0.707107 0.000000 0.707107
0.707107 0.000000 0.707107
0.707107 0.000000 0.707107
0.707107 0.000000 0.707107
0.707107 0.000000 0.707107
0.707107 0.000000 0.707107
0.707107 0.000000 0.707107
0.707107 0.000000 0.707107
0.707107 0.000000 0.707107
0.707107 0.000000 0.707107
0.707107 0.000000 0.707107
0.707107 0.000000 0.707107
0.707107 0.000000 0.707107
0.707107 0.000000 0.707107
0.707107 0.000000 0.707107
0.707107 0.000000 0.707107
0.707107 0.000000 0.707107
0.707107 0.000000 0.707107
0.707107 0.000000 0.707107
0.707107 0.000000 0.707107
0.707107 0.000000 0.707107
0.707107 0.000000 0.707107
0.707107 0.000000 0.707107
0.707107 0.000000 0.707107
0.707107 0.000000 0.707107
0.707107 0.000000 0.707107
0.707107 0.000000 0.707107
0.707107 0.000000 0.707107
0.707107 0.000000 0.707107
0.707107 0.000000 0.707107
0.707107 0.000000 0.707107
0.707107 0.000000 0.707107
0.707107 0.000000 0.707107
0.707107 0.000000 0.707107
0.707107 0.000000 0.707107
0.707107 0.000000 0.707107
0.707107 0.000000 0.707107
0.707107 0.000000 0.707107
0.707107 0.000000 0.707107
0.707107 0.000000 0.707107
0.707107 0.000000 0.707107
0.707107 0.000000 0.707107
0.707107 0.000000 0.707107
0.707107 0.000000 0.707107
0.707107 0.000000 0.707107
0.707107 0.000000 0.707107
0.707107 0.000000 0.707107
0.707107 0.000000 0.707107
0.707107 0.000000 0.707107
0.707107 0.000000 0.707107
0.707107 0.000000 0.707107
0.707107 0.000000 0.707107
0.707107 0.000000 0.707107
0.707107 0.000000 0.707107
0.707107 0.000000 0.707107
0.707107 0.000000 0.707107
0.707107 0.000000 0.707107
0.707107 0.000000 0.707107
0.707107 0.000000 0.707107
0.707107 0.000000 0.707107
0.707107 0.000000 0.707107
0.707107 0.000000 0.707107
0.707107 0.000000 0.707107
0.707107 0.000000 0.707107
0.707107 0.000000 0.707107
0.707107 0.000000 0.707107
0.707107 0.000000 0.707107
0.707107 0.000000 0.707107
0.707107 0.000000 0.707107
0.707107 0.000000 0.707107
0.707107 0.000000 0.707107
0.707107 0.000000 0.707107
0.707107 0.000000 0.707107
0.707107 0.000000 0.707107
0.707107 0.000000 0.707107
0.707107 0.000000 0.707107
0.707107 0.000000 0.707107
0.707107 0.000000 0.707107
0.707107 0.000000 0.707107
0.707107 0.000000 0.707107
0.707107 0.000000 0.707107