# vtk DataFile Version 3.1
Tetrahedral Mesh Visualization
ASCII
DATASET UNSTRUCTURED_GRID

POINTS 277 FLOAT
0.000000 1.378113 1.754166
0.000000 0.000000 0.000000
1.999185 0.005449 -0.008901
0.000000 1.666667 0.000000
2.419044 0.006875 1.725239
0.000000 0.000000 1.666667
1.689394 2.476974 -0.006549
2.997399 2.463699 2.313947
3.989647 5.016310 -0.009782
3.072888 5.013737 1.640277
5.203923 5.016761 1.595478
3.478078 3.189835 -0.013001
5.387304 3.318282 -0.021605
5.982134 5.015700 -0.021667
7.335147 3.348624 -0.032263
6.957516 5.023381 1.304221
9.243810 2.189775 1.967559
8.681449 5.020087 1.571117
9.306220 3.354153 -0.063698
10.638412 5.019957 1.577370
11.293324 3.355743 -0.094954
11.092949 1.882923 1.466707
10.637662 1.686688 -0.084538
12.628277 1.685730 -0.113688
13.290751 3.352077 -0.126053
12.950996 1.894153 1.375260
14.628314 1.685082 -0.131837
13.962152 0.019905 -0.114394
15.448992 2.168614 1.544832
15.316236 0.023453 1.532861
13.316637 0.019160 1.558098
17.273258 0.027167 1.460193
16.624416 1.684810 -0.153656
17.952999 0.007939 -0.157985
15.961214 0.009383 -0.126212
18.617771 1.677543 -0.178339
18.973745 0.007360 1.150956
19.939241 -0.009057 -0.186827
16.741484 0.041433 3.157145
19.009937 0.030965 2.943811
17.713543 2.718876 2.768004
18.040539 0.046985 4.838128
16.727530 1.713706 4.839160
16.037241 0.050378 4.862462
14.688225 0.031423 3.207148
15.783656 2.922597 3.197851
18.784653 1.740567 4.816065
17.371555 3.377999 4.821602
19.352858 3.422088 4.796477
19.356115 5.017599 3.125030
21.075974 3.697240 4.768422
21.363119 5.000004 3.090222
19.626890 2.509295 2.158779
20.652348 4.992212 1.435151
21.916527 2.501692 2.229906
22.642193 4.978436 1.373917
23.205215 3.343083 -0.309465
23.962740 2.425520 1.970668
24.905121 3.623428 -0.379615
24.904987 1.827103 -0.363408
25.947266 2.466002 1.323896
27.159737 1.640658 -0.450362
26.600864 3.329661 -0.453713
29.230663 -0.015594 1.080136
27.899300 -0.054022 -0.467546
29.197296 1.631909 -0.553048
30.928175 -0.024443 0.699918
31.888275 -0.034172 -0.669471
31.186991 1.624212 -0.654181
29.887197 -0.040192 -0.571411
33.152164 1.628370 -0.753429
33.890274 -0.015036 -0.767861
32.635464 -0.007941 0.905398
34.555901 0.002312 0.891774
34.969856 2.415503 1.693351
36.474358 0.011410 0.950951
35.169849 0.029721 2.570588
36.869392 0.036569 2.658968
38.372318 2.575863 4.021971
37.657173 2.188338 1.236057
38.304562 0.039698 1.588727
37.890007 0.006682 -0.927706
38.098087 0.069453 4.075190
36.097412 0.053000 4.151918
36.642563 1.793095 4.101633
35.019749 1.377887 4.176867
34.925762 3.170276 4.159951
36.827019 3.523064 4.075825
34.076824 5.038067 4.174335
32.779690 3.326872 4.252522
33.278828 5.011621 2.556383
32.083912 5.030502 4.259474
35.159000 5.019698 2.520195
32.176964 2.594526 1.719483
34.522160 4.996635 0.843681
32.503090 3.295942 -0.739531
33.232674 0.015856 2.579316
31.000837 0.000027 2.491310
31.404266 1.680643 4.346777
33.336395 1.634276 4.250217
30.759933 3.357720 4.359954
28.759195 3.357833 4.453025
29.422689 1.687544 4.443087
30.002159 2.496620 1.881624
27.948017 2.481492 1.990840
26.752472 3.349166 4.550611
27.420357 1.685110 4.543113
24.633062 4.969829 1.287545
21.937840 4.980318 -0.273621
21.267750 3.319202 -0.242440
22.655401 1.649463 -0.269974
19.960045 5.001343 -0.218913
19.280357 3.341208 -0.207348
18.653954 5.019166 1.465808
17.960566 5.019790 -0.188438
17.286434 3.357095 -0.173015
15.959713 5.025500 -0.153446
16.648174 5.024539 1.502422
14.642390 5.024868 1.521693
13.696934 2.982302 3.140858
13.031872 1.351390 4.892164
12.675862 0.025930 3.232972
14.031907 0.029940 4.885001
11.308537 1.643334 4.907187
10.669125 0.014606 3.255638
12.031360 0.035370 4.910057
10.031138 0.021439 4.931758
11.313438 0.019150 1.581902
9.296619 0.011015 1.609588
9.969064 0.016624 -0.073561
8.657284 1.677786 -0.053303
7.966178 5.033099 -0.025536
9.956738 5.030302 -0.065528
11.229391 2.663795 3.191725
9.261006 5.009349 3.253500
10.775536 3.332883 4.912907
11.318822 5.022334 3.230356
10.033570 5.010872 4.934690
12.036135 5.027654 4.890746
8.029057 5.009013 4.969791
8.769814 3.399117 4.953427
6.973279 5.012915 3.090419
5.378886 3.379759 4.965561
6.021158 5.008103 4.976377
7.057949 3.690093 4.963259
5.145101 2.383253 3.111629
4.626781 5.018720 3.274863
3.499055 3.213170 4.981612
4.013774 5.020972 4.981275
2.369345 5.007268 3.273611
4.825926 1.615613 -0.022038
4.901682 0.006458 1.852415
6.704252 1.663472 -0.037019
7.007134 2.573769 2.158488
8.658289 0.009481 3.282633
17.350477 5.027793 3.157803
15.334717 5.029462 3.180433
16.048721 5.035779 4.831424
14.749583 1.646892 4.863521
15.307999 3.340904 4.847956
11.966190 0.015502 -0.095745
15.289542 3.357060 -0.143945
13.957703 5.022422 -0.135268
12.640506 5.020652 1.546594
13.332479 5.024953 3.201693
7.229880 0.008569 1.655332
6.674833 0.013168 3.346856
4.927481 1.663963 4.967271
6.011327 0.018796 4.964677
4.918432 0.012454 3.633281
4.007699 0.018916 4.976146
7.076650 1.898658 4.963779
8.024726 0.008633 4.949368
9.305345 1.704158 4.932433
21.062525 1.910040 4.775128
22.792738 3.397983 4.719706
24.097164 5.000563 4.653028
24.749908 3.342831 4.633237
23.361895 4.988713 3.016343
27.350008 4.998421 2.835661
26.621984 4.965239 1.196671
25.356312 4.986685 2.927171
35.040051 1.594362 -0.835612
36.716663 1.454566 -0.896414
40.016064 3.303066 2.572707
39.989563 1.679926 1.560537
38.270317 5.031618 1.535346
39.944946 3.287741 0.846811
39.994984 5.052105 2.263764
38.063705 5.047739 4.018065
40.060349 5.059512 3.933588
40.074745 3.398713 3.950669
40.087784 1.739713 3.960589
40.030872 0.055937 2.318566
39.965557 0.044494 0.654747
39.891220 0.021546 -1.006973
39.876858 1.689748 -1.040172
39.867256 3.351341 -1.050653
38.177677 2.478272 -0.975332
37.862904 5.004283 -0.984180
39.929070 5.034848 0.599710
36.843670 5.025915 2.607198
36.446705 5.017174 0.900527
36.379009 3.181413 -0.902520
35.859184 4.996649 -0.896275
34.460331 3.287121 -0.834166
33.855686 4.972974 -0.824988
30.528725 3.294582 -0.644542
29.865345 4.960359 -0.636407
31.864141 4.962546 -0.736656
30.594042 4.987088 0.995928
28.546108 3.299128 -0.534321
26.758707 -0.003108 2.973979
27.234867 -0.030204 1.256905
25.404032 1.678261 4.620839
24.080597 0.005916 4.690201
26.092817 0.012276 4.612681
25.035908 -0.003039 3.333845
23.340469 1.703286 4.707659
23.299313 -0.009503 3.107528
21.285028 0.004499 3.104911
22.068638 0.017533 4.767812
20.051302 0.036756 4.811241
18.063015 5.030988 4.812654
20.075588 5.019752 4.778003
22.702299 -0.027099 1.437710
24.975662 -0.031455 1.549354
23.909597 -0.062356 -0.297135
25.905058 -0.063614 -0.378787
25.896946 4.941572 -0.443201
25.734495 2.223698 3.094920
28.609098 4.982952 1.106958
27.877935 4.953675 -0.531390
26.086935 5.007007 4.565608
11.959513 5.017563 -0.112333
13.035668 3.143086 4.879263
14.036320 5.028776 4.861202
22.092648 5.004583 4.733332
28.762634 -0.000334 2.801938
29.345970 5.011401 2.735166
30.090536 5.031123 4.368986
31.322018 5.007401 2.633132
32.102821 0.027855 4.325078
34.098511 0.035978 4.230359
36.070320 5.041039 4.094402
32.570118 4.991281 0.911416
20.619108 1.655006 -0.203476
20.697866 -0.005740 1.424348
23.912918 4.953249 -0.351546
28.092281 5.021113 4.464067
39.855698 5.020468 -1.067741
3.192556 1.487918 4.985480
0.000000 3.103853 1.750106
0.000000 5.000000 1.666667
0.000000 3.333333 0.000000
1.999156 5.012697 -0.004927
0.000000 5.000000 0.000000
0.000000 5.000000 3.333333
0.000000 0.000000 3.333333
1.703411 2.480739 4.994392
3.041488 0.014452 3.378304
2.005903 0.018585 4.994752
0.000000 2.403264 3.370902
0.000000 1.666667 5.000000
0.000000 3.333333 5.000000
0.000000 0.000000 5.000000
28.103100 0.017815 4.521817
30.101793 0.019543 4.424907
35.892113 -0.007806 -0.847342
40.102852 0.070244 3.976669
7.973658 0.011467 -0.047477
2.004004 5.007602 4.993522
3.153998 1.460072 -0.011840
3.991139 0.000819 -0.016373
21.916670 -0.046224 -0.229705
0.000000 5.000000 5.000000
5.982908 0.008869 -0.036122

CELLS 734 3670
4 0 1 2 3
4 0 4 2 5
4 0 3 2 6
4 4 6 0 2
4 4 6 7 0
4 8 9 10 11
4 12 13 14 15
4 16 17 14 18
4 19 20 18 21
4 20 22 21 23
4 24 25 26 23
4 25 27 26 23
4 26 28 29 30
4 28 29 31 32
4 33 34 32 31
4 31 33 35 32
4 31 33 36 35
4 33 37 36 35
4 38 39 40 31
4 41 42 43 38
4 44 42 45 38
4 44 42 38 43
4 46 38 42 41
4 46 47 40 48
4 49 50 51 52
4 53 54 51 55
4 56 54 55 57
4 56 58 59 57
4 60 59 61 62
4 63 61 64 65
4 66 67 68 69
4 67 70 71 72
4 73 74 75 76
4 74 77 75 76
4 77 78 79 80
4 79 81 75 80
4 77 78 80 82
4 77 83 76 84
4 83 85 76 84
4 85 86 74 84
4 74 86 87 84
4 88 89 86 90
4 91 89 88 90
4 86 88 90 92
4 90 86 92 74
4 86 89 74 90
4 93 94 95 74
4 70 74 72 93
4 70 73 71 72
4 74 96 73 72
4 66 97 93 72
4 96 97 72 93
4 96 98 97 93
4 85 96 74 99
4 96 98 93 99
4 98 89 100 93
4 101 102 100 103
4 104 105 101 106
4 107 58 57 60
4 58 107 57 56
4 53 108 109 55
4 56 110 109 54
4 53 111 109 108
4 112 53 109 52
4 111 112 113 53
4 112 111 113 114
4 115 116 114 117
4 40 28 115 117
4 45 117 118 28
4 119 28 25 44
4 120 44 121 122
4 123 121 124 125
4 125 123 126 124
4 127 128 21 124
4 16 129 128 21
4 16 18 14 130
4 16 17 18 19
4 131 17 132 18
4 16 19 18 21
4 133 16 19 134
4 135 134 133 136
4 135 137 136 138
4 137 134 139 140
4 141 142 143 144
4 145 146 147 7
4 142 148 147 146
4 7 146 147 149
4 10 7 9 146
4 145 150 7 151
4 152 151 150 153
4 16 128 154 124
4 124 21 121 133
4 25 28 30 44
4 28 38 45 40
4 45 47 40 42
4 155 45 156 47
4 157 156 47 155
4 155 45 40 117
4 45 42 158 159
4 44 42 43 158
4 119 45 158 159
4 120 44 158 119
4 25 127 21 121
4 25 27 160 30
4 127 25 160 30
4 25 127 121 30
4 44 25 121 30
4 28 30 44 29
4 119 28 44 45
4 119 28 118 25
4 28 24 26 161
4 26 32 29 28
4 28 31 29 38
4 46 38 41 39
4 46 38 39 40
4 28 117 40 45
4 118 28 117 161
4 162 24 118 161
4 118 119 163 164
4 136 119 164 163
4 25 133 21 163
4 128 16 21 124
4 165 166 153 154
4 166 167 168 169
4 167 168 169 170
4 171 168 172 166
4 124 173 126 154
4 123 121 133 124
4 120 125 122 121
4 122 158 44 43
4 47 46 40 42
4 52 50 174 48
4 175 50 174 54
4 176 175 177 178
4 179 60 180 181
4 64 69 63 65
4 68 72 67 66
4 70 73 182 71
4 74 79 183 75
4 184 78 185 79
4 79 184 186 187
4 186 184 188 187
4 184 189 190 191
4 184 78 79 186
4 78 189 184 191
4 189 184 190 188
4 184 78 191 192
4 184 78 192 185
4 192 78 80 185
4 193 80 194 185
4 195 81 196 194
4 81 79 196 194
4 197 187 196 198
4 187 79 185 196
4 79 184 187 185
4 197 199 187 198
4 199 197 187 200
4 199 200 187 186
4 78 201 79 186
4 189 201 87 78
4 202 201 79 74
4 201 74 92 87
4 201 202 92 74
4 201 202 79 186
4 202 203 74 79
4 202 198 203 79
4 204 202 199 203
4 202 203 205 74
4 202 204 205 203
4 182 203 74 205
4 74 203 183 79
4 79 203 183 198
4 79 81 198 183
4 81 79 198 196
4 187 79 196 198
4 202 198 79 186
4 202 204 94 205
4 94 95 205 206
4 207 208 209 210
4 208 207 211 210
4 104 103 211 65
4 104 60 212 213
4 214 215 216 217
4 218 219 220 221
4 222 174 220 221
4 46 39 222 174
4 52 46 40 48
4 40 49 52 48
4 53 49 52 113
4 40 49 155 113
4 155 45 47 40
4 157 47 223 155
4 49 223 224 48
4 52 50 51 54
4 175 54 57 178
4 218 175 54 57
4 225 219 54 57
4 218 175 57 177
4 57 217 219 218
4 219 225 226 57
4 225 227 226 57
4 59 110 57 227
4 59 60 61 228
4 61 60 213 228
4 64 61 213 228
4 63 61 213 64
4 61 104 211 65
4 180 60 104 62
4 58 229 62 180
4 58 60 180 62
4 60 61 104 62
4 60 226 230 212
4 226 60 213 212
4 60 104 212 230
4 179 60 230 104
4 104 211 231 62
4 180 229 62 232
4 180 232 62 231
4 179 60 104 180
4 233 181 105 179
4 181 105 179 230
4 105 214 106 230
4 105 214 230 177
4 215 214 218 217
4 215 217 218 219
4 218 215 219 221
4 218 175 174 54
4 39 52 220 174
4 39 46 52 174
4 115 52 112 35
4 28 115 117 161
4 162 118 116 161
4 24 162 118 163
4 20 19 234 163
4 25 133 163 119
4 120 119 158 235
4 236 119 235 159
4 235 119 158 159
4 119 235 133 136
4 138 235 236 164
4 45 47 42 159
4 46 38 40 42
4 49 50 52 48
4 237 175 176 178
4 181 233 177 176
4 180 179 231 104
4 207 103 65 211
4 207 103 68 65
4 65 66 103 68
4 103 66 97 93
4 66 103 97 63
4 213 104 63 238
4 238 97 103 63
4 104 102 103 238
4 104 106 212 230
4 214 212 106 230
4 214 212 216 106
4 214 212 217 216
4 214 212 230 217
4 226 217 230 212
4 226 60 230 57
4 181 60 57 230
4 179 105 104 230
4 179 105 101 104
4 104 239 103 101
4 239 101 240 100
4 91 241 240 100
4 241 239 240 100
4 239 241 103 100
4 103 210 93 241
4 103 207 93 210
4 210 103 231 239
4 103 239 104 231
4 103 104 63 65
4 65 66 63 103
4 65 66 68 69
4 68 72 66 93
4 96 98 242 97
4 85 96 99 243
4 85 86 99 74
4 86 89 99 74
4 88 86 244 92
4 74 86 92 87
4 201 244 87 92
4 244 86 87 92
4 90 74 92 94
4 94 95 206 245
4 95 209 206 245
4 245 207 95 209
4 208 232 231 211
4 180 104 231 62
4 181 60 107 57
4 54 175 51 178
4 50 52 174 54
4 246 36 52 247
4 246 36 37 35
4 52 31 36 35
4 31 39 52 36
4 39 46 222 41
4 39 222 174 220
4 174 218 220 221
4 218 219 54 220
4 225 219 220 54
4 56 110 54 57
4 110 56 59 57
4 60 59 226 228
4 60 226 213 228
4 57 217 230 226
4 214 217 230 218
4 218 57 230 177
4 181 105 230 177
4 179 60 181 230
4 58 107 180 60
4 229 107 58 248
4 229 107 180 58
4 60 58 59 62
4 58 107 56 248
4 108 56 109 55
4 108 56 55 248
4 107 56 55 57
4 107 181 57 178
4 57 181 177 178
4 181 176 177 178
4 233 181 177 105
4 249 239 101 240
4 91 89 241 100
4 89 91 241 90
4 210 245 93 241
4 245 241 90 93
4 93 94 90 245
4 74 202 92 94
4 205 204 94 206
4 202 198 199 203
4 202 198 186 199
4 199 197 200 250
4 199 186 187 198
4 200 186 188 187
4 184 189 186 188
4 201 189 87 244
4 189 201 78 186
4 201 78 79 87
4 189 78 184 186
4 186 79 187 198
4 74 201 79 87
4 74 79 84 87
4 79 78 84 87
4 77 78 84 79
4 74 77 84 79
4 74 85 84 76
4 83 243 76 85
4 85 96 243 76
4 73 96 74 76
4 96 93 74 99
4 89 93 99 74
4 93 94 74 90
4 93 94 245 95
4 207 95 68 93
4 95 70 68 93
4 95 70 74 205
4 74 70 182 205
4 94 95 74 205
4 241 89 90 93
4 104 179 231 239
4 181 60 180 107
4 107 57 55 178
4 57 54 55 178
4 53 49 51 52
4 40 49 113 52
4 155 47 223 48
4 45 47 159 156
4 119 156 45 159
4 120 44 119 121
4 16 173 124 154
4 166 167 169 145
4 145 7 147 251
4 9 7 252 149
4 253 254 252 255
4 256 253 255 254
4 6 9 252 255
4 253 257 149 252
4 7 258 259 260
4 260 261 251 170
4 169 260 251 170
4 169 251 167 170
4 166 167 145 171
4 16 22 18 130
4 25 24 20 23
4 24 25 118 28
4 119 156 118 45
4 119 28 45 118
4 119 45 44 158
4 44 38 28 29
4 25 28 26 30
4 25 24 26 28
4 24 20 234 163
4 162 24 234 163
4 163 119 118 25
4 235 135 133 136
4 135 134 140 133
4 145 141 153 144
4 145 260 169 151
4 0 258 4 5
4 259 258 262 263
4 264 259 262 263
4 258 7 262 0
4 260 258 259 261
4 258 261 263 259
4 261 258 263 265
4 261 260 251 259
4 167 251 169 145
4 145 260 251 169
4 166 167 171 168
4 16 171 153 140
4 137 135 136 134
4 138 135 235 136
4 235 138 136 164
4 236 119 156 164
4 157 156 159 47
4 155 47 48 40
4 40 49 48 155
4 46 52 174 48
4 247 225 220 54
4 110 225 57 227
4 60 59 57 226
4 104 61 211 62
4 232 211 62 231
4 103 104 211 231
4 239 210 103 241
4 241 93 103 100
4 68 72 93 70
4 103 207 68 93
4 207 103 211 210
4 210 208 231 211
4 103 210 231 211
4 245 207 210 93
4 245 207 209 210
4 245 207 93 95
4 70 95 74 93
4 70 73 74 182
4 182 203 183 74
4 202 74 205 94
4 93 89 90 74
4 89 241 100 93
4 93 98 103 100
4 101 104 102 103
4 104 101 102 106
4 106 238 104 212
4 266 216 212 106
4 106 238 212 266
4 106 238 102 104
4 267 266 238 102
4 97 102 267 238
4 106 238 266 102
4 97 102 238 103
4 97 102 103 98
4 97 102 98 267
4 97 98 242 267
4 96 98 99 242
4 89 98 99 93
4 239 101 100 103
4 104 179 239 101
4 179 249 239 101
4 105 179 101 249
4 233 105 249 179
4 177 181 57 230
4 175 57 177 178
4 175 237 51 178
4 55 54 51 178
4 112 111 109 53
4 112 53 52 113
4 117 115 113 114
4 116 118 117 161
4 115 116 117 161
4 28 115 161 32
4 29 32 26 34
4 26 30 29 27
4 34 26 29 27
4 29 34 31 32
4 31 115 32 35
4 31 115 28 32
4 246 112 52 35
4 246 247 52 54
4 247 110 225 54
4 59 227 57 226
4 213 104 238 212
4 104 103 63 238
4 97 98 103 93
4 70 73 72 74
4 71 182 268 73
4 182 75 268 73
4 182 75 183 268
4 183 81 268 75
4 182 75 74 183
4 79 81 183 75
4 79 81 80 194
4 78 192 80 82
4 192 193 80 82
4 269 193 192 82
4 193 192 80 185
4 80 79 194 185
4 77 74 75 79
4 85 96 76 74
4 96 243 242 99
4 98 102 103 100
4 104 105 106 230
4 214 218 230 177
4 50 175 51 54
4 49 155 223 48
4 157 156 236 159
4 236 119 159 156
4 235 119 164 136
4 236 119 164 235
4 133 235 120 123
4 120 235 133 119
4 135 123 235 133
4 124 173 123 126
4 173 172 126 154
4 166 171 154 172
4 172 171 154 173
4 171 16 154 173
4 171 166 154 153
4 16 171 154 153
4 124 173 16 133
4 124 173 133 123
4 25 133 119 121
4 19 16 133 21
4 163 19 133 21
4 134 19 133 136
4 133 119 136 163
4 133 19 163 136
4 132 20 18 19
4 20 132 234 19
4 20 19 163 21
4 22 20 21 18
4 16 22 21 18
4 128 129 127 21
4 160 129 21 127
4 160 21 25 127
4 25 20 21 23
4 25 27 23 160
4 25 27 30 26
4 23 22 21 160
4 16 129 21 22
4 128 130 165 270
4 128 130 270 129
4 128 130 16 165
4 16 165 153 154
4 17 16 14 153
4 131 17 18 14
4 17 141 153 15
4 12 10 15 153
4 15 17 14 153
4 153 16 14 130
4 16 129 22 130
4 128 130 129 16
4 16 128 165 154
4 151 166 153 165
4 260 145 7 151
4 9 6 252 7
4 7 262 252 149
4 260 259 7 251
4 7 259 147 251
4 264 259 271 149
4 259 7 147 149
4 146 148 147 149
4 271 259 147 149
4 148 271 147 149
4 146 142 143 141
4 144 141 140 139
4 141 134 140 139
4 143 141 144 139
4 142 145 141 146
4 145 142 141 144
4 148 142 143 146
4 145 7 10 146
4 145 150 151 153
4 151 272 150 7
4 151 272 273 150
4 151 272 4 273
4 4 272 2 273
4 151 272 7 4
4 4 260 7 151
4 166 145 151 153
4 166 145 169 151
4 171 166 153 145
4 133 16 140 173
4 124 16 21 133
4 25 21 160 23
4 21 129 160 22
4 121 21 124 127
4 121 120 133 119
4 123 121 125 120
4 123 121 120 133
4 25 133 121 21
4 25 20 163 21
4 118 24 28 161
4 26 28 161 32
4 40 115 28 31
4 115 52 113 112
4 246 112 109 52
4 246 52 109 54
4 56 54 109 55
4 56 107 55 248
4 58 60 59 57
4 63 61 65 104
4 68 72 70 67
4 182 75 73 74
4 77 79 75 80
4 196 79 185 194
4 79 78 185 80
4 77 78 82 84
4 83 77 82 84
4 77 74 84 76
4 96 74 93 72
4 103 66 93 68
4 65 66 69 63
4 63 61 104 213
4 61 60 104 213
4 59 227 226 228
4 274 110 227 225
4 246 36 247 37
4 246 36 35 52
4 52 115 40 31
4 28 31 38 40
4 44 42 158 45
4 120 44 122 158
4 135 133 140 173
4 171 16 173 140
4 171 144 153 140
4 141 144 140 153
4 10 141 15 153
4 10 12 15 13
4 10 8 12 13
4 8 10 12 11
4 8 9 11 255
4 9 253 149 252
4 257 262 149 252
4 262 259 149 7
4 258 7 4 260
4 259 258 7 262
4 262 0 7 252
4 0 6 7 252
4 254 6 252 255
4 0 3 6 252
4 6 3 254 252
4 272 6 11 7
4 4 6 272 7
4 4 6 2 272
4 9 6 11 255
4 9 253 252 255
4 262 264 257 149
4 257 264 275 271
4 259 264 262 149
4 257 264 271 149
4 9 146 7 149
4 10 7 11 9
4 7 12 10 11
4 145 150 153 12
4 12 145 10 153
4 145 146 10 141
4 145 142 147 146
4 171 145 153 144
4 171 142 145 144
4 142 171 145 167
4 142 145 147 167
4 167 145 147 251
4 145 260 7 251
4 145 150 12 7
4 12 145 7 10
4 12 152 153 14
4 152 153 14 130
4 152 151 153 165
4 165 152 276 270
4 152 151 165 276
4 165 152 270 130
4 152 151 276 150
4 276 150 151 273
4 272 7 11 150
4 7 12 11 150
4 153 150 152 12
4 165 16 153 130
4 165 152 130 153
4 15 12 153 14
4 13 131 14 15
4 17 131 15 14
4 17 132 18 19
4 25 24 163 20
4 25 24 118 163
4 119 156 164 118
4 118 117 45 156
4 155 45 117 156
4 113 40 117 155
4 50 49 224 48
4 49 50 224 51
4 50 237 224 51
4 237 50 175 51
4 52 54 220 174
4 52 247 220 54
4 39 247 220 52
4 39 247 52 36
4 115 52 35 31
4 40 115 52 113
4 40 115 113 117
4 115 112 113 114
4 53 52 51 54
4 54 53 109 55
4 52 53 109 54
4 110 246 109 54
4 247 110 54 246
4 247 110 274 225
4 246 274 37 247
4 247 110 246 274
4 110 225 54 57
4 57 217 226 219
4 57 217 218 230
4 219 218 54 57
4 218 54 174 220
4 46 39 52 40
4 39 31 52 40
4 38 42 45 40
4 28 38 44 45
4 121 25 44 119
4 123 135 173 133
4 134 153 140 16
4 134 16 140 133
4 137 135 134 140
4 134 153 141 140
4 134 153 16 17
4 16 17 19 134
4 134 153 17 141
4 153 145 10 141
4 6 9 11 7
4 258 7 0 4
4 1 0 2 5

CELL_TYPES 734
10
10
10
10
10
10
10
10
10
10
10
10
10
10
10
10
10
10
10
10
10
10
10
10
10
10
10
10
10
10
10
10
10
10
10
10
10
10
10
10
10
10
10
10
10
10
10
10
10
10
10
10
10
10
10
10
10
10
10
10
10
10
10
10
10
10
10
10
10
10
10
10
10
10
10
10
10
10
10
10
10
10
10
10
10
10
10
10
10
10
10
10
10
10
10
10
10
10
10
10
10
10
10
10
10
10
10
10
10
10
10
10
10
10
10
10
10
10
10
10
10
10
10
10
10
10
10
10
10
10
10
10
10
10
10
10
10
10
10
10
10
10
10
10
10
10
10
10
10
10
10
10
10
10
10
10
10
10
10
10
10
10
10
10
10
10
10
10
10
10
10
10
10
10
10
10
10
10
10
10
10
10
10
10
10
10
10
10
10
10
10
10
10
10
10
10
10
10
10
10
10
10
10
10
10
10
10
10
10
10
10
10
10
10
10
10
10
10
10
10
10
10
10
10
10
10
10
10
10
10
10
10
10
10
10
10
10
10
10
10
10
10
10
10
10
10
10
10
10
10
10
10
10
10
10
10
10
10
10
10
10
10
10
10
10
10
10
10
10
10
10
10
10
10
10
10
10
10
10
10
10
10
10
10
10
10
10
10
10
10
10
10
10
10
10
10
10
10
10
10
10
10
10
10
10
10
10
10
10
10
10
10
10
10
10
10
10
10
10
10
10
10
10
10
10
10
10
10
10
10
10
10
10
10
10
10
10
10
10
10
10
10
10
10
10
10
10
10
10
10
10
10
10
10
10
10
10
10
10
10
10
10
10
10
10
10
10
10
10
10
10
10
10
10
10
10
10
10
10
10
10
10
10
10
10
10
10
10
10
10
10
10
10
10
10
10
10
10
10
10
10
10
10
10
10
10
10
10
10
10
10
10
10
10
10
10
10
10
10
10
10
10
10
10
10
10
10
10
10
10
10
10
10
10
10
10
10
10
10
10
10
10
10
10
10
10
10
10
10
10
10
10
10
10
10
10
10
10
10
10
10
10
10
10
10
10
10
10
10
10
10
10
10
10
10
10
10
10
10
10
10
10
10
10
10
10
10
10
10
10
10
10
10
10
10
10
10
10
10
10
10
10
10
10
10
10
10
10
10
10
10
10
10
10
10
10
10
10
10
10
10
10
10
10
10
10
10
10
10
10
10
10
10
10
10
10
10
10
10
10
10
10
10
10
10
10
10
10
10
10
10
10
10
10
10
10
10
10
10
10
10
10
10
10
10
10
10
10
10
10
10
10
10
10
10
10
10
10
10
10
10
10
10
10
10
10
10
10
10
10
10
10
10
10
10
10
10
10
10
10
10
10
10
10
10
10
10
10
10
10
10
10
10
10
10
10
10
10
10
10
10
10
10
10
10
10
10
10
10
10
10
10
10
10
10
10
10
10
10
10
10
10
10
10
10
10
10
10
10
10
10
10
10
10
10
10
10
10
10
10
10
10
10
10
10
10
10
10
10
10
10
10
10
10
10
10
10
10
10
10
10
10
10
10
10
10
10
10
10
10
10
10
10
10
10
10
10
10
10
10
10
10
10
10
10
10
10
10
10
10
10
10
10
10
10
10
10
10
10
10
10
10
10
10
10
10
10
10
10
10
10
10
10
10

CELL_DATA 734
SCALARS potentialEnergy FLOAT 1
LOOKUP_TABLE default
29.577263
25.822127
55.069359
119.428040
43.156349
72.423416
87.894974
118.469627
57.627670
55.124546
34.333210
47.811825
44.783745
19.010536
78.549911
152.973816
149.976227
129.126923
92.571182
113.550331
428.413452
208.394485
117.428085
222.457565
254.114197
141.821121
203.741562
120.509064
152.975357
169.645859
38.579084
62.636177
35.009720
99.697815
170.356583
69.644417
160.243256
56.893452
69.846012
75.760460
55.915604
83.831184
55.698906
44.018604
55.640297
103.577049
213.150742
116.170006
41.485207
36.837088
99.937462
115.317657
124.789421
119.271736
134.903328
98.426338
47.289555
114.159050
70.911900
225.106903
143.653152
391.000793
293.172302
428.064392
32.473124
40.553114
19.151115
95.336235
110.326424
131.859192
36.340364
80.520905
51.129360
110.035408
46.100426
162.767776
107.141983
93.603615
33.811043
362.713318
116.129242
140.381180
38.186174
58.234814
142.727966
115.084297
211.068436
138.701050
168.483902
62.306732
57.390816
89.223343
34.216499
64.563427
188.578568
206.487823
235.808807
96.753151
137.994919
111.324837
95.895744
143.374634
171.866684
88.149918
39.357447
43.301075
45.106949
30.308126
82.176208
51.273815
32.949514
48.294579
50.141315
89.171112
211.883163
77.953026
131.020233
85.174690
40.291470
28.518589
43.692490
86.764130
25.321321
105.685860
32.551426
188.600204
58.230831
75.553848
49.670803
168.089111
160.135330
198.737915
160.123749
67.434425
193.342468
134.064735
43.622036
56.527107
127.021950
34.704126
37.992018
30.617865
194.064377
39.502935
48.382465
61.495975
46.562759
27.534969
57.813816
38.005230
67.450699
227.557220
35.219456
76.058365
62.346344
27.789196
40.453735
70.456570
58.330551
33.566641
34.709898
57.820213
57.460335
28.664740
59.499580
18.603688
55.016685
119.953156
78.929016
46.504143
104.190491
46.602711
56.135300
92.973671
27.937727
19.938885
72.052177
48.620697
45.552250
72.618618
123.589684
68.979324
106.331306
56.935516
291.831024
126.357765
288.641846
331.780273
235.481003
246.579987
199.957672
229.779907
153.368347
259.079407
116.333298
161.411636
102.102280
243.974091
201.625336
47.894783
76.386757
202.206894
38.102140
33.493698
58.037056
103.612617
193.623978
121.981232
153.006760
338.987915
39.003654
54.692989
99.779915
61.306339
87.001617
214.694489
186.027115
58.913902
61.237370
90.561440
72.371552
54.797920
81.209534
116.428360
38.838625
171.212982
451.344452
308.938080
368.166962
166.868698
96.050797
50.807423
47.325375
132.971024
25.275177
63.899921
87.917763
160.499908
153.685623
19.489334
187.167160
314.861969
451.399750
36.877302
138.927963
192.349380
226.613281
131.139122
165.883514
165.498550
131.487755
131.500519
117.081680
274.465363
184.480621
115.012558
52.690594
107.023712
108.453697
157.512527
31.193531
47.155556
118.774216
233.662903
164.367676
64.036613
81.436676
131.206909
194.787613
132.139435
210.432007
210.855942
105.930878
147.910767
168.920654
60.175697
118.826202
52.146187
49.749020
64.177689
88.271584
39.897472
85.634666
39.595427
73.071697
63.806454
30.515388
50.131584
79.067284
108.109909
234.386200
93.127960
54.018147
224.686371
238.107224
182.894135
200.968719
185.853775
183.519348
130.009407
260.198090
76.740860
76.427185
319.863037
328.935669
58.508888
153.161835
97.597015
131.942940
84.754280
262.218262
134.047493
130.978394
121.566650
57.071884
125.029655
73.637749
235.515503
347.583344
153.035553
141.251816
182.112152
104.007324
214.524384
55.617058
95.965111
77.223358
57.270458
38.576597
53.585503
118.361198
118.644394
33.265024
34.327183
34.302687
36.504852
44.747787
55.418476
55.033878
53.999512
59.215271
83.220764
31.834957
62.301273
51.007980
61.805756
62.179333
70.583344
95.534172
47.833534
14.194586
26.487225
98.636963
74.803062
183.054382
101.457077
67.920418
80.409027
127.863075
48.270634
86.212654
160.501770
96.559845
158.094955
154.690674
117.451553
120.597282
118.604973
152.365585
362.425812
246.289520
113.404167
72.019135
99.810249
47.932838
111.200623
44.199284
38.793308
69.516720
21.953446
71.659828
64.996159
57.447716
54.460545
138.377762
63.402206
30.480787
115.467491
57.496284
171.413666
226.323380
39.759861
37.932917
38.423586
27.654898
56.932755
79.751251
105.970314
178.016830
189.272598
114.107620
33.167589
279.323822
195.465530
55.421169
97.066589
101.699577
304.409088
68.234314
109.711876
76.450966
70.217777
49.937748
137.680656
32.379639
50.736187
65.638580
204.161057
251.462311
173.048035
173.084045
78.261749
161.920013
68.498371
91.368782
92.206772
160.603912
149.407883
124.543510
103.365829
155.066315
223.710663
77.013489
237.656036
88.566612
88.333641
83.336281
109.874382
65.274086
49.666836
113.561600
60.637379
146.423874
111.985237
127.658989
133.647911
98.388161
246.053329
70.482422
120.353447
53.180218
63.662090
79.389725
94.752686
85.774986
53.577225
56.797459
35.202484
63.568439
155.414520
135.031433
68.595474
98.863777
121.158348
30.067444
229.625275
102.928909
50.766537
192.805969
263.633636
107.093719
79.589378
60.731712
55.437042
89.712135
70.568295
78.144615
67.054329
131.812706
35.830971
324.500641
145.663269
186.145859
46.245010
186.178864
210.410965
183.724503
40.508003
38.078674
40.407375
31.064739
89.512169
59.141083
58.543518
70.963482
174.356445
107.030220
148.289139
51.269516
33.142866
33.481024
66.271629
35.814207
100.373627
24.104239
103.856850
258.800186
131.298218
141.554779
100.274223
37.011429
76.352722
45.107265
56.882401
135.280205
51.146252
99.402641
19.618282
58.396694
66.419903
20.979397
19.696113
64.845482
154.273819
58.729580
125.460518
84.577553
116.137016
44.577152
43.504230
79.769241
120.761131
300.498077
83.419998
38.207882
59.149265
25.851582
81.914558
63.820511
74.094994
40.071678
89.476250
29.067593
71.786804
32.115664
41.680122
21.893631
45.463718
127.625153
54.007633
115.110329
84.649254
53.646130
180.199127
44.547436
48.314808
74.155159
68.754574
57.029408
42.274906
109.621025
109.803040
55.857250
270.321259
291.061676
95.564552
116.333145
72.314686
48.877735
39.577251
96.164085
216.272552
107.702347
151.087189
100.039330
41.466524
215.883499
100.568634
63.256931
81.306793
41.149693
51.921822
93.520988
61.474350
87.222870
110.405731
51.492180
93.409302
61.889603
44.917000
93.715645
56.567661
50.305431
64.790974
78.237717
100.877579
42.260067
148.884918
167.591766
399.420807
235.946030
663.481934
81.748894
152.046402
222.530624
49.036659
45.515217
53.149075
122.740997
107.295685
100.345192
94.558868
59.421745
129.042725
177.701569
40.084520
225.047714
88.344536
38.843191
85.056229
115.292633
391.544830
249.873245
54.718822
161.276932
58.943306
108.877617
100.632790
55.812107
86.971878
80.855606
60.574505
61.700851
67.363052
96.048965
223.312881
25.819929
59.302525
53.457462
45.179005
42.991806
41.845642
71.516575
140.370850
135.665276
48.852623
101.056732
133.204338
88.671135
53.373920
26.133175
133.573891
51.575428
37.634922
203.766312
145.339859
136.139015
44.162155
53.380737
270.395477
268.052399
62.833271
69.210583
99.150383
69.713875
63.910755
61.855480
58.461140
81.470703
130.591301
97.867035
69.107327
80.008484
77.707985
100.864197
40.362486
74.482513
122.657410
73.838402
39.847448
46.402847
84.048370
186.836349
202.153107
132.167992
76.166611
17.011992
114.649750
51.768578
123.393890
231.060471
55.671059
173.329727
164.705933
206.001114
75.970512
262.481018
154.178162
247.409439
149.840790
204.169647
132.255798
69.884808
240.337753
108.171051
248.084167
250.548126
284.135468
342.280457
126.101311
442.588043
279.892670
167.767685
80.470047
102.290367
217.222748
336.871002
221.210510
78.138733
122.215622
80.599403
82.963425
114.116974
47.784954
124.717140
103.836273
55.939980
26.601454
130.043976
32.323914
69.869881
122.127907
38.853937
25.380345

