# vtk DataFile Version 3.1
Tetrahedral Mesh Visualization
ASCII
DATASET UNSTRUCTURED_GRID

POINTS 277 FLOAT
0.000000 1.378113 1.754166
0.000000 0.000000 0.000000
1.999426 -0.000867 -0.005568
0.000000 1.666667 0.000000
2.418347 0.002761 1.728489
0.000000 0.000000 1.666667
1.692191 2.468416 -0.006068
2.997814 2.460433 2.314455
4.000131 5.010920 -0.002777
3.076334 5.006027 1.642464
5.212128 5.006209 1.604354
3.488204 3.186915 -0.007943
5.404500 3.309928 -0.005999
6.002609 5.004888 -0.006119
7.360258 3.325088 -0.006251
6.968726 4.996882 1.317870
9.252928 2.168457 2.022105
8.692795 4.986494 1.604636
9.350312 3.327603 -0.004698
10.662828 4.990821 1.653580
11.348544 3.330666 -0.001394
11.117127 1.860990 1.555918
10.679965 1.666225 -0.001935
12.678245 1.657196 -0.000526
13.355083 3.318385 0.002304
12.981421 1.859106 1.490662
14.685760 1.652690 -0.003407
14.010107 -0.010693 -0.007213
15.478809 2.121310 1.689785
15.339342 -0.017940 1.652516
13.339525 -0.014380 1.656058
17.302900 -0.016599 1.618312
16.692047 1.647259 0.010262
18.026245 -0.016615 0.018206
16.018248 -0.013836 -0.001531
18.703667 1.647604 0.028386
19.024019 -0.013356 1.347762
20.037037 -0.023045 0.043506
16.732121 -0.017254 3.306288
18.993567 -0.014439 3.129678
17.702227 2.678280 2.960026
17.969894 -0.028465 5.007719
16.652517 1.641413 5.009966
15.977403 -0.029811 5.000013
14.681208 -0.028570 3.322606
15.769476 2.865295 3.356075
18.692261 1.678895 5.019310
17.284515 3.319840 5.017069
19.245903 3.373538 5.033453
19.319904 4.989293 3.366481
20.950954 3.662323 5.063323
21.319656 4.987515 3.407192
19.630775 2.485510 2.387105
20.680695 4.990062 1.725201
21.912903 2.496693 2.558838
22.678268 4.980319 1.757867
23.335178 3.368724 0.099838
23.973518 2.434176 2.406704
25.048861 3.661222 0.119406
25.046032 1.876175 0.114537
25.995920 2.476237 1.863759
27.322563 1.682238 0.144674
26.763412 3.367662 0.147127
29.293030 -0.017287 1.780437
28.059816 -0.014619 0.152267
29.375101 1.664443 0.178457
31.019789 -0.006105 1.516324
32.082748 0.004584 0.231101
31.388885 1.666244 0.219297
30.066931 -0.001364 0.184395
33.367168 1.647107 0.296695
34.100735 -0.006255 0.337431
32.705650 -0.006450 1.865418
34.622559 -0.004551 2.045462
34.986252 2.392477 2.924525
36.522903 -0.025365 2.280437
35.095165 -0.015665 3.780353
36.772892 -0.026502 4.021160
38.181602 2.465629 5.536205
37.691250 2.125798 2.695774
38.282211 -0.046903 3.069881
38.088688 -0.029888 0.525517
37.867767 -0.062090 5.520261
35.879696 -0.019144 5.438687
36.449245 1.726820 5.463878
34.828548 1.321351 5.385873
34.751942 3.122020 5.384839
36.653160 3.457981 5.470582
33.903297 4.993738 5.342396
32.608574 3.288365 5.272419
33.250969 4.990044 3.653542
31.915575 4.981923 5.260659
35.129051 4.985958 3.793633
32.205914 2.590709 2.676393
34.632217 4.990830 2.068872
32.725567 3.321853 0.273767
33.172512 -0.014527 3.592213
30.965576 -0.014750 3.307021
31.234337 1.638114 5.216802
33.154701 1.588240 5.291126
30.590466 3.307852 5.207188
28.592516 3.296895 5.171000
29.258360 1.634904 5.178648
30.017662 2.481748 2.663058
27.957239 2.462852 2.635616
26.601662 3.305375 5.134415
27.257080 1.630305 5.149116
24.676432 4.984076 1.772578
22.040281 4.965406 0.076639
21.373716 3.315213 0.077680
22.775309 1.681016 0.090500
20.038513 4.969119 0.043204
19.371300 3.311694 0.035897
18.676088 4.988675 1.689111
18.028524 4.979795 0.018304
17.362312 3.315736 0.015242
16.024397 4.981885 0.009038
16.673956 4.987003 1.678251
14.674127 4.983123 1.672648
13.694480 2.935969 3.267867
12.987740 1.306525 4.994279
12.668218 -0.021264 3.324633
13.986051 -0.021020 4.994272
11.273005 1.603683 4.996197
10.659586 -0.011748 3.325143
11.991365 -0.017087 4.990630
9.992634 -0.010097 4.989217
11.327478 -0.005662 1.662409
9.308227 -0.002610 1.659197
10.000108 0.005577 -0.007385
8.682108 1.663136 -0.007805
8.003798 4.992718 -0.004869
10.006954 4.995769 -0.001747
11.225193 2.631842 3.283287
9.261535 4.990975 3.294188
10.740460 3.308682 4.994383
11.316133 4.993443 3.317101
10.006840 5.000842 4.988679
12.003757 4.998411 4.988606
8.010335 4.996042 4.990284
8.743671 3.383557 4.987742
6.970609 4.997614 3.103973
5.361884 3.373766 4.987318
6.008214 5.003601 4.988717
7.035597 3.679678 4.987658
5.138759 2.372580 3.130463
4.624052 5.005130 3.283993
3.489653 3.196861 4.991056
4.004576 5.006037 4.992604
2.369839 5.001968 3.277704
4.837433 1.613198 -0.010312
4.900259 0.004139 1.867092
6.720735 1.650608 -0.010513
7.007581 2.553197 2.186074
8.652379 -0.007772 3.330469
17.325033 4.989589 3.351090
15.334997 4.987930 3.337865
15.984919 4.991615 5.012311
14.696444 1.592864 5.001555
15.247209 3.292672 5.002539
12.001761 -0.004431 -0.004608
15.359547 3.315929 0.008581
14.022059 4.985705 0.006818
12.668381 4.985526 1.659066
13.330093 4.982471 3.321439
7.237076 -0.004045 1.686080
6.666311 -0.008097 3.372829
4.910285 1.652363 4.991108
5.993720 0.007621 4.999456
4.911455 0.003071 3.652722
3.996939 0.001765 4.987986
7.048077 1.884252 4.988072
7.992485 -0.005471 4.987541
9.276570 1.685669 4.989667
20.947096 1.866630 5.057445
22.658899 3.372169 5.092430
23.959387 4.980905 5.107772
24.613432 3.322535 5.111478
23.317211 4.985119 3.433874
27.311373 4.973185 3.472835
26.673513 4.978621 1.800982
25.315899 4.982079 3.444484
35.255856 1.601606 0.394857
36.928417 1.434019 0.472038
39.945805 3.184928 4.237572
39.974972 1.571697 3.219877
38.313000 4.955791 3.091330
40.020054 3.197409 2.515664
39.978485 4.933915 3.962404
37.908390 4.948814 5.544353
39.906944 4.929010 5.630070
39.897198 3.259372 5.611913
39.870987 1.591827 5.621318
39.941990 -0.060659 3.956482
40.010468 -0.051783 2.291619
40.083496 -0.036905 0.621505
40.088692 1.628405 0.626031
40.091331 3.293077 0.620556
38.395527 2.442692 0.546479
38.106079 4.978684 0.547504
40.039230 4.948329 2.298463
36.806782 4.978523 4.033520
36.546841 4.982783 2.298444
36.609028 3.170388 0.467102
36.101467 4.988474 0.458873
34.688709 3.296442 0.377897
34.097511 4.990345 0.344352
30.726221 3.329147 0.213236
30.060335 4.991434 0.208217
32.080807 4.989707 0.267181
30.676136 4.987329 1.882316
28.724548 3.330596 0.174879
26.699419 -0.028934 3.512813
27.279644 -0.021804 1.823995
25.255306 1.640363 5.121564
23.954060 -0.032658 5.090896
25.943148 -0.039301 5.118330
24.976439 -0.028415 3.778513
23.217716 1.676796 5.093984
23.258194 -0.019664 3.474822
21.249876 -0.019451 3.375178
21.955904 -0.020885 5.075347
19.953753 -0.026875 5.036341
17.972496 4.986663 5.025156
19.959484 4.980632 5.051297
22.747841 -0.013139 1.776359
25.008118 -0.017204 1.986404
24.042450 -0.008796 0.095768
26.052954 -0.007262 0.113284
26.043404 4.976108 0.124991
25.678162 2.209907 3.613979
28.672964 4.980651 1.836668
28.047235 4.976641 0.159651
25.953722 4.979433 5.117697
12.016246 4.989973 -0.006371
12.992916 3.103821 4.995358
13.993446 5.002208 4.989567
21.961491 4.980925 5.084552
28.711220 -0.022541 3.469501
29.301561 4.968686 3.512770
29.925776 4.976683 5.195054
31.290768 4.984066 3.567557
31.914165 -0.025483 5.232424
33.890457 -0.015737 5.327959
35.901081 4.981688 5.440527
32.669781 4.983914 1.949861
20.724964 1.645944 0.052174
20.742895 -0.012370 1.670595
24.038303 4.976440 0.099100
27.941124 4.967178 5.158802
40.099453 4.960625 0.626968
3.182081 1.470542 4.992193
0.000000 3.103853 1.750106
0.000000 5.000000 1.666667
0.000000 3.333333 0.000000
2.000501 5.001453 -0.002048
0.000000 5.000000 0.000000
0.000000 5.000000 3.333333
0.000000 0.000000 3.333333
1.699787 2.471228 4.996526
3.035092 0.004092 3.381649
1.999580 -0.001201 4.993996
0.000000 2.403264 3.370902
0.000000 1.666667 5.000000
0.000000 3.333333 5.000000
0.000000 0.000000 5.000000
27.941320 -0.036914 5.146942
29.937405 -0.028370 5.182014
36.094456 -0.017248 0.437948
39.859653 -0.078970 5.622617
7.991377 -0.000613 -0.007754
2.000639 5.002188 4.997743
3.158942 1.461189 -0.008704
3.993641 0.005080 -0.008168
22.041441 -0.017376 0.076314
0.000000 5.000000 5.000000
5.992017 -0.001736 -0.006758

CELLS 734 3670
4 0 1 2 3
4 0 4 2 5
4 0 3 2 6
4 4 6 0 2
4 4 6 7 0
4 8 9 10 11
4 12 13 14 15
4 16 17 14 18
4 19 20 18 21
4 20 22 21 23
4 24 25 26 23
4 25 27 26 23
4 26 28 29 30
4 28 29 31 32
4 33 34 32 31
4 31 33 35 32
4 31 33 36 35
4 33 37 36 35
4 38 39 40 31
4 41 42 43 38
4 44 42 45 38
4 44 42 38 43
4 46 38 42 41
4 46 47 40 48
4 49 50 51 52
4 53 54 51 55
4 56 54 55 57
4 56 58 59 57
4 60 59 61 62
4 63 61 64 65
4 66 67 68 69
4 67 70 71 72
4 73 74 75 76
4 74 77 75 76
4 77 78 79 80
4 79 81 75 80
4 77 78 80 82
4 77 83 76 84
4 83 85 76 84
4 85 86 74 84
4 74 86 87 84
4 88 89 86 90
4 91 89 88 90
4 86 88 90 92
4 90 86 92 74
4 86 89 74 90
4 93 94 95 74
4 70 74 72 93
4 70 73 71 72
4 74 96 73 72
4 66 97 93 72
4 96 97 72 93
4 96 98 97 93
4 85 96 74 99
4 96 98 93 99
4 98 89 100 93
4 101 102 100 103
4 104 105 101 106
4 107 58 57 60
4 58 107 57 56
4 53 108 109 55
4 56 110 109 54
4 53 111 109 108
4 112 53 109 52
4 111 112 113 53
4 112 111 113 114
4 115 116 114 117
4 40 28 115 117
4 45 117 118 28
4 119 28 25 44
4 120 44 121 122
4 123 121 124 125
4 125 123 126 124
4 127 128 21 124
4 16 129 128 21
4 16 18 14 130
4 16 17 18 19
4 131 17 132 18
4 16 19 18 21
4 133 16 19 134
4 135 134 133 136
4 135 137 136 138
4 137 134 139 140
4 141 142 143 144
4 145 146 147 7
4 142 148 147 146
4 7 146 147 149
4 10 7 9 146
4 145 150 7 151
4 152 151 150 153
4 16 128 154 124
4 124 21 121 133
4 25 28 30 44
4 28 38 45 40
4 45 47 40 42
4 155 45 156 47
4 157 156 47 155
4 155 45 40 117
4 45 42 158 159
4 44 42 43 158
4 119 45 158 159
4 120 44 158 119
4 25 127 21 121
4 25 27 160 30
4 127 25 160 30
4 25 127 121 30
4 44 25 121 30
4 28 30 44 29
4 119 28 44 45
4 119 28 118 25
4 28 24 26 161
4 26 32 29 28
4 28 31 29 38
4 46 38 41 39
4 46 38 39 40
4 28 117 40 45
4 118 28 117 161
4 162 24 118 161
4 118 119 163 164
4 136 119 164 163
4 25 133 21 163
4 128 16 21 124
4 165 166 153 154
4 166 167 168 169
4 167 168 169 170
4 171 168 172 166
4 124 173 126 154
4 123 121 133 124
4 120 125 122 121
4 122 158 44 43
4 47 46 40 42
4 52 50 174 48
4 175 50 174 54
4 176 175 177 178
4 179 60 180 181
4 64 69 63 65
4 68 72 67 66
4 70 73 182 71
4 74 79 183 75
4 184 78 185 79
4 79 184 186 187
4 186 184 188 187
4 184 189 190 191
4 184 78 79 186
4 78 189 184 191
4 189 184 190 188
4 184 78 191 192
4 184 78 192 185
4 192 78 80 185
4 193 80 194 185
4 195 81 196 194
4 81 79 196 194
4 197 187 196 198
4 187 79 185 196
4 79 184 187 185
4 197 199 187 198
4 199 197 187 200
4 199 200 187 186
4 78 201 79 186
4 189 201 87 78
4 202 201 79 74
4 201 74 92 87
4 201 202 92 74
4 201 202 79 186
4 202 203 74 79
4 202 198 203 79
4 204 202 199 203
4 202 203 205 74
4 202 204 205 203
4 182 203 74 205
4 74 203 183 79
4 79 203 183 198
4 79 81 198 183
4 81 79 198 196
4 187 79 196 198
4 202 198 79 186
4 202 204 94 205
4 94 95 205 206
4 207 208 209 210
4 208 207 211 210
4 104 103 211 65
4 104 60 212 213
4 214 215 216 217
4 218 219 220 221
4 222 174 220 221
4 46 39 222 174
4 52 46 40 48
4 40 49 52 48
4 53 49 52 113
4 40 49 155 113
4 155 45 47 40
4 157 47 223 155
4 49 223 224 48
4 52 50 51 54
4 175 54 57 178
4 218 175 54 57
4 225 219 54 57
4 218 175 57 177
4 57 217 219 218
4 219 225 226 57
4 225 227 226 57
4 59 110 57 227
4 59 60 61 228
4 61 60 213 228
4 64 61 213 228
4 63 61 213 64
4 61 104 211 65
4 180 60 104 62
4 58 229 62 180
4 58 60 180 62
4 60 61 104 62
4 60 226 230 212
4 226 60 213 212
4 60 104 212 230
4 179 60 230 104
4 104 211 231 62
4 180 229 62 232
4 180 232 62 231
4 179 60 104 180
4 233 181 105 179
4 181 105 179 230
4 105 214 106 230
4 105 214 230 177
4 215 214 218 217
4 215 217 218 219
4 218 215 219 221
4 218 175 174 54
4 39 52 220 174
4 39 46 52 174
4 115 52 112 35
4 28 115 117 161
4 162 118 116 161
4 24 162 118 163
4 20 19 234 163
4 25 133 163 119
4 120 119 158 235
4 236 119 235 159
4 235 119 158 159
4 119 235 133 136
4 138 235 236 164
4 45 47 42 159
4 46 38 40 42
4 49 50 52 48
4 237 175 176 178
4 181 233 177 176
4 180 179 231 104
4 207 103 65 211
4 207 103 68 65
4 65 66 103 68
4 103 66 97 93
4 66 103 97 63
4 213 104 63 238
4 238 97 103 63
4 104 102 103 238
4 104 106 212 230
4 214 212 106 230
4 214 212 216 106
4 214 212 217 216
4 214 212 230 217
4 226 217 230 212
4 226 60 230 57
4 181 60 57 230
4 179 105 104 230
4 179 105 101 104
4 104 239 103 101
4 239 101 240 100
4 91 241 240 100
4 241 239 240 100
4 239 241 103 100
4 103 210 93 241
4 103 207 93 210
4 210 103 231 239
4 103 239 104 231
4 103 104 63 65
4 65 66 63 103
4 65 66 68 69
4 68 72 66 93
4 96 98 242 97
4 85 96 99 243
4 85 86 99 74
4 86 89 99 74
4 88 86 244 92
4 74 86 92 87
4 201 244 87 92
4 244 86 87 92
4 90 74 92 94
4 94 95 206 245
4 95 209 206 245
4 245 207 95 209
4 208 232 231 211
4 180 104 231 62
4 181 60 107 57
4 54 175 51 178
4 50 52 174 54
4 246 36 52 247
4 246 36 37 35
4 52 31 36 35
4 31 39 52 36
4 39 46 222 41
4 39 222 174 220
4 174 218 220 221
4 218 219 54 220
4 225 219 220 54
4 56 110 54 57
4 110 56 59 57
4 60 59 226 228
4 60 226 213 228
4 57 217 230 226
4 214 217 230 218
4 218 57 230 177
4 181 105 230 177
4 179 60 181 230
4 58 107 180 60
4 229 107 58 248
4 229 107 180 58
4 60 58 59 62
4 58 107 56 248
4 108 56 109 55
4 108 56 55 248
4 107 56 55 57
4 107 181 57 178
4 57 181 177 178
4 181 176 177 178
4 233 181 177 105
4 249 239 101 240
4 91 89 241 100
4 89 91 241 90
4 210 245 93 241
4 245 241 90 93
4 93 94 90 245
4 74 202 92 94
4 205 204 94 206
4 202 198 199 203
4 202 198 186 199
4 199 197 200 250
4 199 186 187 198
4 200 186 188 187
4 184 189 186 188
4 201 189 87 244
4 189 201 78 186
4 201 78 79 87
4 189 78 184 186
4 186 79 187 198
4 74 201 79 87
4 74 79 84 87
4 79 78 84 87
4 77 78 84 79
4 74 77 84 79
4 74 85 84 76
4 83 243 76 85
4 85 96 243 76
4 73 96 74 76
4 96 93 74 99
4 89 93 99 74
4 93 94 74 90
4 93 94 245 95
4 207 95 68 93
4 95 70 68 93
4 95 70 74 205
4 74 70 182 205
4 94 95 74 205
4 241 89 90 93
4 104 179 231 239
4 181 60 180 107
4 107 57 55 178
4 57 54 55 178
4 53 49 51 52
4 40 49 113 52
4 155 47 223 48
4 45 47 159 156
4 119 156 45 159
4 120 44 119 121
4 16 173 124 154
4 166 167 169 145
4 145 7 147 251
4 9 7 252 149
4 253 254 252 255
4 256 253 255 254
4 6 9 252 255
4 253 257 149 252
4 7 258 259 260
4 260 261 251 170
4 169 260 251 170
4 169 251 167 170
4 166 167 145 171
4 16 22 18 130
4 25 24 20 23
4 24 25 118 28
4 119 156 118 45
4 119 28 45 118
4 119 45 44 158
4 44 38 28 29
4 25 28 26 30
4 25 24 26 28
4 24 20 234 163
4 162 24 234 163
4 163 119 118 25
4 235 135 133 136
4 135 134 140 133
4 145 141 153 144
4 145 260 169 151
4 0 258 4 5
4 259 258 262 263
4 264 259 262 263
4 258 7 262 0
4 260 258 259 261
4 258 261 263 259
4 261 258 263 265
4 261 260 251 259
4 167 251 169 145
4 145 260 251 169
4 166 167 171 168
4 16 171 153 140
4 137 135 136 134
4 138 135 235 136
4 235 138 136 164
4 236 119 156 164
4 157 156 159 47
4 155 47 48 40
4 40 49 48 155
4 46 52 174 48
4 247 225 220 54
4 110 225 57 227
4 60 59 57 226
4 104 61 211 62
4 232 211 62 231
4 103 104 211 231
4 239 210 103 241
4 241 93 103 100
4 68 72 93 70
4 103 207 68 93
4 207 103 211 210
4 210 208 231 211
4 103 210 231 211
4 245 207 210 93
4 245 207 209 210
4 245 207 93 95
4 70 95 74 93
4 70 73 74 182
4 182 203 183 74
4 202 74 205 94
4 93 89 90 74
4 89 241 100 93
4 93 98 103 100
4 101 104 102 103
4 104 101 102 106
4 106 238 104 212
4 266 216 212 106
4 106 238 212 266
4 106 238 102 104
4 267 266 238 102
4 97 102 267 238
4 106 238 266 102
4 97 102 238 103
4 97 102 103 98
4 97 102 98 267
4 97 98 242 267
4 96 98 99 242
4 89 98 99 93
4 239 101 100 103
4 104 179 239 101
4 179 249 239 101
4 105 179 101 249
4 233 105 249 179
4 177 181 57 230
4 175 57 177 178
4 175 237 51 178
4 55 54 51 178
4 112 111 109 53
4 112 53 52 113
4 117 115 113 114
4 116 118 117 161
4 115 116 117 161
4 28 115 161 32
4 29 32 26 34
4 26 30 29 27
4 34 26 29 27
4 29 34 31 32
4 31 115 32 35
4 31 115 28 32
4 246 112 52 35
4 246 247 52 54
4 247 110 225 54
4 59 227 57 226
4 213 104 238 212
4 104 103 63 238
4 97 98 103 93
4 70 73 72 74
4 71 182 268 73
4 182 75 268 73
4 182 75 183 268
4 183 81 268 75
4 182 75 74 183
4 79 81 183 75
4 79 81 80 194
4 78 192 80 82
4 192 193 80 82
4 269 193 192 82
4 193 192 80 185
4 80 79 194 185
4 77 74 75 79
4 85 96 76 74
4 96 243 242 99
4 98 102 103 100
4 104 105 106 230
4 214 218 230 177
4 50 175 51 54
4 49 155 223 48
4 157 156 236 159
4 236 119 159 156
4 235 119 164 136
4 236 119 164 235
4 133 235 120 123
4 120 235 133 119
4 135 123 235 133
4 124 173 123 126
4 173 172 126 154
4 166 171 154 172
4 172 171 154 173
4 171 16 154 173
4 171 166 154 153
4 16 171 154 153
4 124 173 16 133
4 124 173 133 123
4 25 133 119 121
4 19 16 133 21
4 163 19 133 21
4 134 19 133 136
4 133 119 136 163
4 133 19 163 136
4 132 20 18 19
4 20 132 234 19
4 20 19 163 21
4 22 20 21 18
4 16 22 21 18
4 128 129 127 21
4 160 129 21 127
4 160 21 25 127
4 25 20 21 23
4 25 27 23 160
4 25 27 30 26
4 23 22 21 160
4 16 129 21 22
4 128 130 165 270
4 128 130 270 129
4 128 130 16 165
4 16 165 153 154
4 17 16 14 153
4 131 17 18 14
4 17 141 153 15
4 12 10 15 153
4 15 17 14 153
4 153 16 14 130
4 16 129 22 130
4 128 130 129 16
4 16 128 165 154
4 151 166 153 165
4 260 145 7 151
4 9 6 252 7
4 7 262 252 149
4 260 259 7 251
4 7 259 147 251
4 264 259 271 149
4 259 7 147 149
4 146 148 147 149
4 271 259 147 149
4 148 271 147 149
4 146 142 143 141
4 144 141 140 139
4 141 134 140 139
4 143 141 144 139
4 142 145 141 146
4 145 142 141 144
4 148 142 143 146
4 145 7 10 146
4 145 150 151 153
4 151 272 150 7
4 151 272 273 150
4 151 272 4 273
4 4 272 2 273
4 151 272 7 4
4 4 260 7 151
4 166 145 151 153
4 166 145 169 151
4 171 166 153 145
4 133 16 140 173
4 124 16 21 133
4 25 21 160 23
4 21 129 160 22
4 121 21 124 127
4 121 120 133 119
4 123 121 125 120
4 123 121 120 133
4 25 133 121 21
4 25 20 163 21
4 118 24 28 161
4 26 28 161 32
4 40 115 28 31
4 115 52 113 112
4 246 112 109 52
4 246 52 109 54
4 56 54 109 55
4 56 107 55 248
4 58 60 59 57
4 63 61 65 104
4 68 72 70 67
4 182 75 73 74
4 77 79 75 80
4 196 79 185 194
4 79 78 185 80
4 77 78 82 84
4 83 77 82 84
4 77 74 84 76
4 96 74 93 72
4 103 66 93 68
4 65 66 69 63
4 63 61 104 213
4 61 60 104 213
4 59 227 226 228
4 274 110 227 225
4 246 36 247 37
4 246 36 35 52
4 52 115 40 31
4 28 31 38 40
4 44 42 158 45
4 120 44 122 158
4 135 133 140 173
4 171 16 173 140
4 171 144 153 140
4 141 144 140 153
4 10 141 15 153
4 10 12 15 13
4 10 8 12 13
4 8 10 12 11
4 8 9 11 255
4 9 253 149 252
4 257 262 149 252
4 262 259 149 7
4 258 7 4 260
4 259 258 7 262
4 262 0 7 252
4 0 6 7 252
4 254 6 252 255
4 0 3 6 252
4 6 3 254 252
4 272 6 11 7
4 4 6 272 7
4 4 6 2 272
4 9 6 11 255
4 9 253 252 255
4 262 264 257 149
4 257 264 275 271
4 259 264 262 149
4 257 264 271 149
4 9 146 7 149
4 10 7 11 9
4 7 12 10 11
4 145 150 153 12
4 12 145 10 153
4 145 146 10 141
4 145 142 147 146
4 171 145 153 144
4 171 142 145 144
4 142 171 145 167
4 142 145 147 167
4 167 145 147 251
4 145 260 7 251
4 145 150 12 7
4 12 145 7 10
4 12 152 153 14
4 152 153 14 130
4 152 151 153 165
4 165 152 276 270
4 152 151 165 276
4 165 152 270 130
4 152 151 276 150
4 276 150 151 273
4 272 7 11 150
4 7 12 11 150
4 153 150 152 12
4 165 16 153 130
4 165 152 130 153
4 15 12 153 14
4 13 131 14 15
4 17 131 15 14
4 17 132 18 19
4 25 24 163 20
4 25 24 118 163
4 119 156 164 118
4 118 117 45 156
4 155 45 117 156
4 113 40 117 155
4 50 49 224 48
4 49 50 224 51
4 50 237 224 51
4 237 50 175 51
4 52 54 220 174
4 52 247 220 54
4 39 247 220 52
4 39 247 52 36
4 115 52 35 31
4 40 115 52 113
4 40 115 113 117
4 115 112 113 114
4 53 52 51 54
4 54 53 109 55
4 52 53 109 54
4 110 246 109 54
4 247 110 54 246
4 247 110 274 225
4 246 274 37 247
4 247 110 246 274
4 110 225 54 57
4 57 217 226 219
4 57 217 218 230
4 219 218 54 57
4 218 54 174 220
4 46 39 52 40
4 39 31 52 40
4 38 42 45 40
4 28 38 44 45
4 121 25 44 119
4 123 135 173 133
4 134 153 140 16
4 134 16 140 133
4 137 135 134 140
4 134 153 141 140
4 134 153 16 17
4 16 17 19 134
4 134 153 17 141
4 153 145 10 141
4 6 9 11 7
4 258 7 0 4
4 1 0 2 5

CELL_TYPES 734
10
10
10
10
10
10
10
10
10
10
10
10
10
10
10
10
10
10
10
10
10
10
10
10
10
10
10
10
10
10
10
10
10
10
10
10
10
10
10
10
10
10
10
10
10
10
10
10
10
10
10
10
10
10
10
10
10
10
10
10
10
10
10
10
10
10
10
10
10
10
10
10
10
10
10
10
10
10
10
10
10
10
10
10
10
10
10
10
10
10
10
10
10
10
10
10
10
10
10
10
10
10
10
10
10
10
10
10
10
10
10
10
10
10
10
10
10
10
10
10
10
10
10
10
10
10
10
10
10
10
10
10
10
10
10
10
10
10
10
10
10
10
10
10
10
10
10
10
10
10
10
10
10
10
10
10
10
10
10
10
10
10
10
10
10
10
10
10
10
10
10
10
10
10
10
10
10
10
10
10
10
10
10
10
10
10
10
10
10
10
10
10
10
10
10
10
10
10
10
10
10
10
10
10
10
10
10
10
10
10
10
10
10
10
10
10
10
10
10
10
10
10
10
10
10
10
10
10
10
10
10
10
10
10
10
10
10
10
10
10
10
10
10
10
10
10
10
10
10
10
10
10
10
10
10
10
10
10
10
10
10
10
10
10
10
10
10
10
10
10
10
10
10
10
10
10
10
10
10
10
10
10
10
10
10
10
10
10
10
10
10
10
10
10
10
10
10
10
10
10
10
10
10
10
10
10
10
10
10
10
10
10
10
10
10
10
10
10
10
10
10
10
10
10
10
10
10
10
10
10
10
10
10
10
10
10
10
10
10
10
10
10
10
10
10
10
10
10
10
10
10
10
10
10
10
10
10
10
10
10
10
10
10
10
10
10
10
10
10
10
10
10
10
10
10
10
10
10
10
10
10
10
10
10
10
10
10
10
10
10
10
10
10
10
10
10
10
10
10
10
10
10
10
10
10
10
10
10
10
10
10
10
10
10
10
10
10
10
10
10
10
10
10
10
10
10
10
10
10
10
10
10
10
10
10
10
10
10
10
10
10
10
10
10
10
10
10
10
10
10
10
10
10
10
10
10
10
10
10
10
10
10
10
10
10
10
10
10
10
10
10
10
10
10
10
10
10
10
10
10
10
10
10
10
10
10
10
10
10
10
10
10
10
10
10
10
10
10
10
10
10
10
10
10
10
10
10
10
10
10
10
10
10
10
10
10
10
10
10
10
10
10
10
10
10
10
10
10
10
10
10
10
10
10
10
10
10
10
10
10
10
10
10
10
10
10
10
10
10
10
10
10
10
10
10
10
10
10
10
10
10
10
10
10
10
10
10
10
10
10
10
10
10
10
10
10
10
10
10
10
10
10
10
10
10
10
10
10
10
10
10
10
10
10
10
10
10
10
10
10
10
10
10
10
10
10
10
10
10
10
10
10
10
10
10
10
10
10
10
10
10
10
10
10
10
10
10
10
10
10
10
10
10
10
10
10
10
10
10
10
10
10
10
10
10
10
10
10
10
10
10
10
10
10
10
10
10
10
10
10
10
10
10
10
10
10
10
10
10
10
10
10
10
10
10
10
10
10
10
10
10
10
10
10
10
10
10
10
10
10
10
10
10
10
10
10
10
10
10
10
10
10
10
10
10
10
10
10
10
10
10
10
10
10
10
10
10
10
10
10
10
10
10
10
10
10
10
10
10
10
10
10
10
10

CELL_DATA 734
SCALARS potentialEnergy FLOAT 1
LOOKUP_TABLE default
16.730494
28.460590
19.218240
29.729399
29.320677
61.148796
20.254445
87.020126
66.477776
70.793201
50.644615
100.096008
31.900522
37.250483
47.503628
53.829544
52.162189
114.018570
82.505440
103.895073
244.857986
70.987007
129.550713
136.200302
22.698538
46.558437
126.364342
142.751999
196.591751
92.169579
173.788055
373.173035
319.382599
90.838654
227.430252
252.650940
316.157593
91.341522
77.990288
116.719772
109.538521
187.099442
174.905548
107.342461
196.235229
361.819092
443.354797
353.337219
156.422852
350.940643
44.104015
126.330154
174.740631
571.900330
205.008804
146.983566
189.483688
163.738403
162.367874
148.387833
78.878326
109.737900
74.582321
231.406937
134.819603
100.567703
41.990932
145.083405
230.209106
50.511040
58.780071
40.254606
27.911394
23.184099
55.472157
77.401909
53.173683
44.872635
72.671036
40.043148
50.877319
20.288463
87.915222
28.739422
18.474379
21.228653
33.139961
21.440754
19.331046
31.463289
50.488503
47.357166
36.600912
59.116356
94.752594
147.815460
262.253128
102.241745
230.669464
219.604111
108.317009
157.484558
38.585232
55.327454
39.334005
62.339130
72.967148
41.961407
99.392967
48.584435
46.820450
31.094000
34.712465
133.985931
220.632950
123.455688
114.165985
99.542946
101.208366
86.593071
194.589935
49.858227
22.054975
83.804367
47.051476
94.183670
26.362047
178.568039
35.341265
106.391335
145.006241
110.800041
78.317810
49.806782
89.587563
111.553658
13.216677
78.692528
239.777679
123.857941
50.312988
65.417454
58.945225
49.084785
49.051113
106.529907
168.814896
139.177124
217.408890
81.944160
75.770470
184.016022
134.970192
149.166214
90.727646
29.715908
83.724861
28.378088
214.432831
149.398224
214.746201
161.664047
172.351654
167.124756
125.832314
103.197815
145.965134
223.527710
136.565025
94.185608
227.509430
116.106621
112.244255
252.222565
167.065598
115.915169
239.260239
267.487488
295.448578
140.917679
245.387482
138.240982
94.403633
22.854074
47.764259
78.093323
60.556789
90.694664
54.877964
76.227592
158.255768
118.307213
120.716476
50.266247
105.648529
59.004013
53.265884
153.611938
173.200424
181.858658
157.173904
158.278702
189.478134
327.109436
68.170731
81.902748
118.806976
183.340637
115.417763
310.130615
435.673431
122.115448
110.727097
159.705139
79.530029
384.525665
80.569046
38.582155
69.653671
76.461609
119.884377
143.228897
157.442688
128.131905
119.231239
100.211639
122.627861
77.500061
126.836319
109.245926
178.438126
35.076078
26.870022
64.557068
84.183983
88.685417
182.059387
186.175262
62.741478
149.994629
120.905586
228.807724
116.028961
67.660885
135.340881
81.091682
184.393051
301.530334
618.522278
35.878653
180.991684
173.795013
121.379890
250.884384
282.650543
146.383835
116.391602
85.025970
134.432335
42.472797
216.871155
123.911949
146.891891
369.220398
275.183075
152.785294
89.721321
237.247253
163.219391
37.305832
120.401939
127.791679
138.367661
286.847687
157.228287
155.887375
83.186928
93.908936
196.734344
344.414093
276.572693
52.511318
214.808075
224.177795
44.025772
198.778458
177.823990
260.253952
235.873184
110.182899
219.669968
154.804153
85.842415
132.797417
57.533440
63.934441
86.340408
92.034073
184.071732
71.768875
53.227936
44.598484
42.851078
104.985466
173.376923
148.951202
103.437645
85.116554
197.729736
112.080322
229.089233
79.836037
136.708092
66.742306
98.124207
61.316261
111.422836
143.469666
63.809029
148.662338
130.755951
253.086395
144.267639
135.289688
216.474014
87.695732
58.735859
163.799194
133.791199
231.846558
219.819199
311.903839
55.525261
95.413101
127.754280
268.008423
37.040169
99.189339
275.500427
218.261246
196.779388
39.403980
126.437340
194.384491
175.225174
221.510406
348.792786
219.034561
126.557678
210.764862
167.686386
387.980804
441.862732
387.391327
193.015030
322.785400
421.126312
356.562256
212.592575
189.023972
366.884613
104.270546
285.964081
75.958374
204.065140
59.126698
27.618942
52.759529
61.459595
193.308533
256.085159
71.822498
23.944706
43.814476
28.485355
63.938530
13.037664
12.557492
48.861507
10.739712
49.092033
31.019464
18.959507
30.988811
57.991741
139.522125
89.437004
33.120083
119.473297
116.608055
183.865204
89.917160
28.769236
44.443523
148.274429
96.592064
84.927078
124.628456
45.012596
44.545174
13.850423
38.091997
22.358053
18.510174
39.597111
28.279638
22.395027
16.133219
24.800035
13.457420
12.280032
70.449432
40.490318
63.498051
48.113247
20.481857
145.775345
146.955093
253.219589
107.633575
89.626122
71.111347
121.633072
140.958069
155.571762
86.774323
254.614975
70.835899
104.513634
327.518463
208.875565
466.720886
72.974407
229.621277
197.768829
123.695702
621.210449
264.826859
294.813599
184.772659
433.386627
395.344818
168.163330
87.638649
248.287750
146.122833
245.913116
42.807796
149.479706
238.884354
61.261723
94.842171
56.119328
207.631012
356.998291
142.407211
324.454376
96.504211
150.148804
473.089691
125.187080
148.706863
94.533501
100.160568
228.834671
196.640091
30.277451
132.444115
130.207230
182.058823
37.359097
70.937843
50.414516
57.322258
50.030678
101.186714
105.432793
57.696888
74.150543
40.278385
121.310043
162.272430
65.140598
174.815323
112.517815
157.823257
125.128021
404.333282
116.726273
165.722946
115.610619
85.102173
133.319023
167.053848
110.482300
208.605713
90.963593
126.091202
92.740860
161.245209
167.588364
515.423615
364.678711
252.298370
209.013794
159.777023
98.588860
105.715218
74.302269
199.101120
43.047966
82.932816
57.704655
136.552795
63.196003
25.744169
25.514213
41.561586
29.082354
20.653874
26.486002
57.827862
107.671768
65.621532
93.006516
73.515099
104.384972
190.041016
115.744003
138.883072
30.430271
80.388100
77.890411
35.807434
38.504768
63.911034
55.394878
43.565334
48.640732
52.836643
31.580126
14.603638
97.911430
42.203194
79.163383
47.915703
28.386894
81.553291
52.068825
42.277691
41.108004
62.674667
51.237358
102.907043
48.187008
36.607832
48.339340
19.631924
53.621449
48.220524
28.286829
47.995956
14.456563
36.142616
24.117959
27.870705
48.094589
24.155983
18.242498
24.702918
38.506311
39.941690
43.258102
20.001387
15.863569
46.536892
15.194576
15.850063
25.569339
38.989098
35.179623
52.154701
54.579453
50.289326
69.370602
33.990570
65.827091
26.588400
23.215468
124.269852
111.122452
85.157471
64.469795
59.625591
71.805614
125.860565
30.312767
126.112701
132.172691
243.122406
201.457413
113.188103
60.105743
118.385147
183.767227
182.470901
401.004761
91.186874
144.996429
236.046463
262.769089
235.102402
183.355591
297.419678
105.755997
133.331131
166.504196
183.317047
182.075928
79.100204
29.678261
223.322174
76.228035
62.290085
330.810547
64.181763
75.956390
17.251688
26.179356
24.789957
35.503668
23.787653
68.207355
39.742329
36.921856
30.781054
10.978980
29.501919
30.000229
55.402691
31.497952
27.580751
25.057690
21.368164
20.957845
66.638145
65.471138
32.374947
33.813658
17.639780
10.998364
14.161988
14.298454
14.891042
49.248272
22.074230
27.396603
32.760227
51.531425
87.632195
36.622869
34.135775
27.485649
16.339596
16.895484
15.904852
26.215033
64.526970
19.222340
21.430346
30.356152
47.898972
43.872593
58.143429
35.127790
26.260086
50.410976
24.384332
21.594201
29.367500
86.052422
28.981575
36.925314
24.527559
36.478714
33.893473
156.615860
33.366589
85.907280
272.784576
138.180252
112.577888
49.144325
59.817657
32.726992
22.189224
84.282394
67.307831
53.428116
77.776443
146.422531
156.821991
74.349411
141.244171
66.934566
185.444077
208.489197
178.222839
132.771751
82.723717
44.789497
54.279762
78.057861
160.386932
129.970024
63.077053
111.713081
98.207291
88.954666
134.913124
52.111660
91.878792
111.104813
54.138451
58.446438
101.903603
42.795273
61.754475
79.240364
54.615704
52.399265
47.504673
48.359123
15.287630

