# vtk DataFile Version 3.1
Tetrahedral Mesh Visualization
ASCII
DATASET UNSTRUCTURED_GRID

POINTS 277 FLOAT
0.000000 1.378113 1.754166
0.000000 0.000000 0.000000
1.998255 -0.014470 -0.006150
0.000000 1.666667 0.000000
2.417031 -0.006992 1.730969
0.000000 0.000000 1.666667
1.684257 2.462440 -0.005746
2.997601 2.452693 2.316212
3.976447 5.024968 -0.012180
3.071371 5.002535 1.648957
5.200308 5.022818 1.582712
3.463718 3.192920 -0.020596
5.369395 3.335543 -0.044588
5.964902 5.037191 -0.047684
7.308676 3.349819 -0.091089
6.951402 5.030433 1.257348
9.238404 2.196996 1.870150
8.673896 5.019413 1.487604
9.285640 3.362568 -0.156552
10.641481 5.026529 1.476430
11.278059 3.368118 -0.211357
11.081738 1.893144 1.341350
10.604616 1.699205 -0.203451
12.599970 1.697077 -0.252505
13.271042 3.365300 -0.265138
12.939491 1.905022 1.231823
14.599220 1.691503 -0.304263
13.930441 0.025697 -0.289256
15.437860 2.163006 1.366851
15.306261 0.023127 1.330221
13.307793 0.027459 1.390054
17.270552 0.027831 1.235883
16.603121 1.689145 -0.346399
17.949505 0.034039 -0.382032
15.935831 0.025388 -0.342153
18.624910 1.693693 -0.386010
18.989031 0.028853 0.917268
19.967009 0.027235 -0.411801
16.751642 0.020787 2.937170
19.015684 0.015171 2.694565
17.709307 2.709215 2.567517
18.039160 0.007801 4.603621
16.725609 1.680043 4.645181
16.052996 0.017521 4.661666
14.703599 0.018674 3.020395
15.788571 2.909121 3.022917
18.766764 1.703448 4.591135
17.354805 3.355406 4.632298
19.318512 3.399460 4.595293
19.341290 5.016906 2.937963
21.030935 3.678867 4.587973
21.341509 5.006752 2.923350
19.628969 2.517037 1.945925
20.659147 5.009971 1.254317
21.920095 2.523712 2.058099
22.664398 4.996572 1.245726
23.261637 3.387572 -0.436258
23.972473 2.439150 1.866709
24.963646 3.668924 -0.453776
24.963974 1.879048 -0.452777
25.967155 2.484882 1.274712
27.219700 1.691155 -0.484486
26.659647 3.378143 -0.481220
29.260641 0.014505 1.067862
27.966597 -0.001254 -0.508369
29.261616 1.690212 -0.543065
30.968733 0.035099 0.727201
31.951542 0.044602 -0.623220
31.254063 1.708863 -0.601708
29.961508 0.023158 -0.564200
33.221966 1.704878 -0.649432
33.957352 0.058612 -0.679102
32.668621 0.031399 0.967494
34.588223 0.050682 0.987211
34.985672 2.455982 1.840602
36.501549 0.059068 1.082220
35.164204 0.044021 2.674113
36.854988 0.049220 2.804121
38.332016 2.549157 4.244703
37.676140 2.216927 1.440124
38.304699 0.047457 1.761967
37.964031 0.071715 -0.769395
38.045631 0.032109 4.242585
36.052917 0.037245 4.274147
36.604328 1.789692 4.275956
34.984001 1.370639 4.302129
34.887131 3.168269 4.315704
36.789165 3.521376 4.281238
34.029781 5.026035 4.353279
32.732922 3.319202 4.365548
33.272892 5.030108 2.713814
32.033512 5.018521 4.393369
35.155293 5.048495 2.719487
32.192665 2.625210 1.802669
34.558884 5.057065 1.033595
32.579712 3.380348 -0.625385
33.233776 0.031941 2.652279
31.003529 0.022437 2.521152
31.370392 1.669597 4.403938
33.301384 1.629707 4.342202
30.708111 3.333524 4.428804
28.699907 3.330840 4.487813
29.378138 1.666385 4.462349
30.007620 2.514308 1.924703
27.952826 2.489612 1.984756
26.697510 3.310040 4.530632
27.377123 1.647543 4.509798
24.653248 4.986584 1.225752
21.982559 5.004692 -0.418313
21.304661 3.357199 -0.417931
22.700624 1.707657 -0.431352
19.964380 5.009863 -0.399460
19.289936 3.352835 -0.396258
18.648001 5.016876 1.282940
17.949602 5.018330 -0.364556
17.275419 3.355835 -0.360672
15.940446 5.016732 -0.329946
16.638971 5.020130 1.321457
14.640126 5.024189 1.378079
13.707689 2.979328 2.997096
13.049808 1.338730 4.738381
12.690705 0.023274 3.071495
14.053285 0.014542 4.707553
11.331288 1.624798 4.779403
10.683406 0.020281 3.121116
12.062899 0.011632 4.757106
10.063404 0.005533 4.802198
11.302492 0.026300 1.440114
9.283589 0.019431 1.500338
9.934164 0.027765 -0.190190
8.620890 1.686114 -0.142452
7.942557 5.022754 -0.103562
9.942945 5.032825 -0.161829
11.237590 2.662923 3.070932
9.272806 5.014750 3.158876
10.794198 3.320307 4.802987
11.329345 5.020360 3.126869
10.054329 5.004302 4.837061
12.052975 5.015007 4.781694
8.059486 5.002635 4.901034
8.793832 3.394281 4.858729
6.979602 5.017441 3.047815
5.398417 3.373277 4.945328
6.042999 4.997187 4.952377
7.082568 3.686102 4.916019
5.148375 2.385577 3.096327
4.629662 5.012607 3.271662
3.507215 3.200256 4.981321
4.026991 5.003755 4.983496
2.370033 4.994454 3.284391
4.804059 1.631339 -0.041483
4.894702 0.017052 1.839882
6.670489 1.666399 -0.088267
6.999843 2.581796 2.109966
8.676067 0.010541 3.188421
17.340908 5.026201 2.967880
15.342381 5.025107 3.023411
16.050886 5.019842 4.671898
14.762063 1.626987 4.697534
15.310469 3.321675 4.687694
11.931009 0.029858 -0.242875
15.269941 3.355357 -0.311200
13.941744 5.032649 -0.269684
12.642463 5.031462 1.431035
13.342616 5.022149 3.080910
7.219420 0.021851 1.595612
6.691248 0.013890 3.299645
4.942640 1.661354 4.947900
6.042776 0.017745 4.925207
4.928840 0.017701 3.616919
4.025023 0.023724 4.971154
7.101988 1.892936 4.906820
8.062599 0.005240 4.869200
9.331046 1.697133 4.832953
21.024038 1.890346 4.582556
22.740528 3.377331 4.586045
24.033182 4.971349 4.582881
24.696598 3.314968 4.565117
23.342434 4.987216 2.915995
27.327538 4.987487 2.849752
26.637249 4.982491 1.191734
25.336691 4.979003 2.892730
35.108097 1.676795 -0.699503
36.790936 1.523927 -0.740923
40.007095 3.292121 2.856056
39.995068 1.680714 1.816574
38.284813 5.056273 1.803323
39.976955 3.315349 1.135305
39.991688 5.054717 2.588691
38.031761 5.030013 4.272124
40.030701 5.019298 4.253561
40.029274 3.359069 4.239791
40.035709 1.691183 4.214468
40.008949 0.033847 2.536462
39.985142 0.056294 0.876656
39.969608 0.079613 -0.791718
39.958462 1.744581 -0.768095
39.954830 3.405559 -0.759853
38.258507 2.537443 -0.748096
37.943832 5.061707 -0.726723
39.963329 5.065591 0.918066
36.837421 5.048120 2.838409
36.477917 5.059870 1.121757
36.459507 3.250137 -0.715081
35.936237 5.067498 -0.685659
34.537636 3.370376 -0.677098
33.931698 5.064209 -0.646152
30.593819 3.373152 -0.564533
29.926231 5.031501 -0.543606
31.928686 5.050899 -0.588601
30.613985 5.028940 1.109436
28.605343 3.351513 -0.519817
26.744415 -0.014967 2.905957
27.261154 -0.009775 1.201841
25.353193 1.639556 4.545332
24.026028 -0.021984 4.550224
26.044624 -0.029246 4.520977
25.012611 -0.014964 3.218871
23.290504 1.681428 4.576784
23.283724 -0.002929 2.943513
21.276585 0.015023 2.881153
22.021542 -0.006594 4.569027
20.028439 -0.002887 4.579224
18.042835 5.014692 4.625482
20.035812 5.005409 4.599552
22.729986 0.009853 1.248899
24.996563 -0.014417 1.430031
23.969496 0.003829 -0.453023
25.971069 -0.009818 -0.470673
25.952702 4.988146 -0.472310
25.714863 2.210270 3.037626
28.627523 5.001388 1.157221
27.939548 5.003573 -0.499928
26.035696 4.973927 4.545228
11.943411 5.035031 -0.217880
13.048634 3.129404 4.745756
14.052354 5.021619 4.728531
22.031824 4.989336 4.590672
28.757399 -0.003276 2.779986
29.324738 5.008446 2.810136
30.038952 5.005167 4.452543
31.311256 5.014046 2.753419
32.074493 0.021432 4.380380
34.063847 0.029371 4.323038
36.028545 5.038735 4.310972
32.598579 5.037549 1.056942
20.652157 1.696261 -0.418443
20.722593 0.027701 1.188850
23.973232 4.995520 -0.439873
28.027103 4.990849 4.500940
39.949406 5.071404 -0.745242
3.196978 1.477171 4.986517
0.000000 3.103853 1.750106
0.000000 5.000000 1.666667
0.000000 3.333333 0.000000
1.998045 4.999924 -0.000743
0.000000 5.000000 0.000000
0.000000 5.000000 3.333333
0.000000 0.000000 3.333333
1.706208 2.470972 4.995708
3.039817 0.003848 3.384424
2.001514 0.011967 5.001424
0.000000 2.403264 3.370902
0.000000 1.666667 5.000000
0.000000 3.333333 5.000000
0.000000 0.000000 5.000000
28.064030 -0.014482 4.485755
30.069744 0.011767 4.438014
35.956261 0.073535 -0.724373
40.032829 0.020036 4.205256
7.934244 0.017837 -0.123306
2.006397 4.998632 4.999402
3.140869 1.454311 -0.022323
3.981734 0.002372 -0.026128
21.968275 0.017684 -0.438131
0.000000 5.000000 5.000000
5.945149 0.008431 -0.066566

CELLS 734 3670
4 0 1 2 3
4 0 4 2 5
4 0 3 2 6
4 4 6 0 2
4 4 6 7 0
4 8 9 10 11
4 12 13 14 15
4 16 17 14 18
4 19 20 18 21
4 20 22 21 23
4 24 25 26 23
4 25 27 26 23
4 26 28 29 30
4 28 29 31 32
4 33 34 32 31
4 31 33 35 32
4 31 33 36 35
4 33 37 36 35
4 38 39 40 31
4 41 42 43 38
4 44 42 45 38
4 44 42 38 43
4 46 38 42 41
4 46 47 40 48
4 49 50 51 52
4 53 54 51 55
4 56 54 55 57
4 56 58 59 57
4 60 59 61 62
4 63 61 64 65
4 66 67 68 69
4 67 70 71 72
4 73 74 75 76
4 74 77 75 76
4 77 78 79 80
4 79 81 75 80
4 77 78 80 82
4 77 83 76 84
4 83 85 76 84
4 85 86 74 84
4 74 86 87 84
4 88 89 86 90
4 91 89 88 90
4 86 88 90 92
4 90 86 92 74
4 86 89 74 90
4 93 94 95 74
4 70 74 72 93
4 70 73 71 72
4 74 96 73 72
4 66 97 93 72
4 96 97 72 93
4 96 98 97 93
4 85 96 74 99
4 96 98 93 99
4 98 89 100 93
4 101 102 100 103
4 104 105 101 106
4 107 58 57 60
4 58 107 57 56
4 53 108 109 55
4 56 110 109 54
4 53 111 109 108
4 112 53 109 52
4 111 112 113 53
4 112 111 113 114
4 115 116 114 117
4 40 28 115 117
4 45 117 118 28
4 119 28 25 44
4 120 44 121 122
4 123 121 124 125
4 125 123 126 124
4 127 128 21 124
4 16 129 128 21
4 16 18 14 130
4 16 17 18 19
4 131 17 132 18
4 16 19 18 21
4 133 16 19 134
4 135 134 133 136
4 135 137 136 138
4 137 134 139 140
4 141 142 143 144
4 145 146 147 7
4 142 148 147 146
4 7 146 147 149
4 10 7 9 146
4 145 150 7 151
4 152 151 150 153
4 16 128 154 124
4 124 21 121 133
4 25 28 30 44
4 28 38 45 40
4 45 47 40 42
4 155 45 156 47
4 157 156 47 155
4 155 45 40 117
4 45 42 158 159
4 44 42 43 158
4 119 45 158 159
4 120 44 158 119
4 25 127 21 121
4 25 27 160 30
4 127 25 160 30
4 25 127 121 30
4 44 25 121 30
4 28 30 44 29
4 119 28 44 45
4 119 28 118 25
4 28 24 26 161
4 26 32 29 28
4 28 31 29 38
4 46 38 41 39
4 46 38 39 40
4 28 117 40 45
4 118 28 117 161
4 162 24 118 161
4 118 119 163 164
4 136 119 164 163
4 25 133 21 163
4 128 16 21 124
4 165 166 153 154
4 166 167 168 169
4 167 168 169 170
4 171 168 172 166
4 124 173 126 154
4 123 121 133 124
4 120 125 122 121
4 122 158 44 43
4 47 46 40 42
4 52 50 174 48
4 175 50 174 54
4 176 175 177 178
4 179 60 180 181
4 64 69 63 65
4 68 72 67 66
4 70 73 182 71
4 74 79 183 75
4 184 78 185 79
4 79 184 186 187
4 186 184 188 187
4 184 189 190 191
4 184 78 79 186
4 78 189 184 191
4 189 184 190 188
4 184 78 191 192
4 184 78 192 185
4 192 78 80 185
4 193 80 194 185
4 195 81 196 194
4 81 79 196 194
4 197 187 196 198
4 187 79 185 196
4 79 184 187 185
4 197 199 187 198
4 199 197 187 200
4 199 200 187 186
4 78 201 79 186
4 189 201 87 78
4 202 201 79 74
4 201 74 92 87
4 201 202 92 74
4 201 202 79 186
4 202 203 74 79
4 202 198 203 79
4 204 202 199 203
4 202 203 205 74
4 202 204 205 203
4 182 203 74 205
4 74 203 183 79
4 79 203 183 198
4 79 81 198 183
4 81 79 198 196
4 187 79 196 198
4 202 198 79 186
4 202 204 94 205
4 94 95 205 206
4 207 208 209 210
4 208 207 211 210
4 104 103 211 65
4 104 60 212 213
4 214 215 216 217
4 218 219 220 221
4 222 174 220 221
4 46 39 222 174
4 52 46 40 48
4 40 49 52 48
4 53 49 52 113
4 40 49 155 113
4 155 45 47 40
4 157 47 223 155
4 49 223 224 48
4 52 50 51 54
4 175 54 57 178
4 218 175 54 57
4 225 219 54 57
4 218 175 57 177
4 57 217 219 218
4 219 225 226 57
4 225 227 226 57
4 59 110 57 227
4 59 60 61 228
4 61 60 213 228
4 64 61 213 228
4 63 61 213 64
4 61 104 211 65
4 180 60 104 62
4 58 229 62 180
4 58 60 180 62
4 60 61 104 62
4 60 226 230 212
4 226 60 213 212
4 60 104 212 230
4 179 60 230 104
4 104 211 231 62
4 180 229 62 232
4 180 232 62 231
4 179 60 104 180
4 233 181 105 179
4 181 105 179 230
4 105 214 106 230
4 105 214 230 177
4 215 214 218 217
4 215 217 218 219
4 218 215 219 221
4 218 175 174 54
4 39 52 220 174
4 39 46 52 174
4 115 52 112 35
4 28 115 117 161
4 162 118 116 161
4 24 162 118 163
4 20 19 234 163
4 25 133 163 119
4 120 119 158 235
4 236 119 235 159
4 235 119 158 159
4 119 235 133 136
4 138 235 236 164
4 45 47 42 159
4 46 38 40 42
4 49 50 52 48
4 237 175 176 178
4 181 233 177 176
4 180 179 231 104
4 207 103 65 211
4 207 103 68 65
4 65 66 103 68
4 103 66 97 93
4 66 103 97 63
4 213 104 63 238
4 238 97 103 63
4 104 102 103 238
4 104 106 212 230
4 214 212 106 230
4 214 212 216 106
4 214 212 217 216
4 214 212 230 217
4 226 217 230 212
4 226 60 230 57
4 181 60 57 230
4 179 105 104 230
4 179 105 101 104
4 104 239 103 101
4 239 101 240 100
4 91 241 240 100
4 241 239 240 100
4 239 241 103 100
4 103 210 93 241
4 103 207 93 210
4 210 103 231 239
4 103 239 104 231
4 103 104 63 65
4 65 66 63 103
4 65 66 68 69
4 68 72 66 93
4 96 98 242 97
4 85 96 99 243
4 85 86 99 74
4 86 89 99 74
4 88 86 244 92
4 74 86 92 87
4 201 244 87 92
4 244 86 87 92
4 90 74 92 94
4 94 95 206 245
4 95 209 206 245
4 245 207 95 209
4 208 232 231 211
4 180 104 231 62
4 181 60 107 57
4 54 175 51 178
4 50 52 174 54
4 246 36 52 247
4 246 36 37 35
4 52 31 36 35
4 31 39 52 36
4 39 46 222 41
4 39 222 174 220
4 174 218 220 221
4 218 219 54 220
4 225 219 220 54
4 56 110 54 57
4 110 56 59 57
4 60 59 226 228
4 60 226 213 228
4 57 217 230 226
4 214 217 230 218
4 218 57 230 177
4 181 105 230 177
4 179 60 181 230
4 58 107 180 60
4 229 107 58 248
4 229 107 180 58
4 60 58 59 62
4 58 107 56 248
4 108 56 109 55
4 108 56 55 248
4 107 56 55 57
4 107 181 57 178
4 57 181 177 178
4 181 176 177 178
4 233 181 177 105
4 249 239 101 240
4 91 89 241 100
4 89 91 241 90
4 210 245 93 241
4 245 241 90 93
4 93 94 90 245
4 74 202 92 94
4 205 204 94 206
4 202 198 199 203
4 202 198 186 199
4 199 197 200 250
4 199 186 187 198
4 200 186 188 187
4 184 189 186 188
4 201 189 87 244
4 189 201 78 186
4 201 78 79 87
4 189 78 184 186
4 186 79 187 198
4 74 201 79 87
4 74 79 84 87
4 79 78 84 87
4 77 78 84 79
4 74 77 84 79
4 74 85 84 76
4 83 243 76 85
4 85 96 243 76
4 73 96 74 76
4 96 93 74 99
4 89 93 99 74
4 93 94 74 90
4 93 94 245 95
4 207 95 68 93
4 95 70 68 93
4 95 70 74 205
4 74 70 182 205
4 94 95 74 205
4 241 89 90 93
4 104 179 231 239
4 181 60 180 107
4 107 57 55 178
4 57 54 55 178
4 53 49 51 52
4 40 49 113 52
4 155 47 223 48
4 45 47 159 156
4 119 156 45 159
4 120 44 119 121
4 16 173 124 154
4 166 167 169 145
4 145 7 147 251
4 9 7 252 149
4 253 254 252 255
4 256 253 255 254
4 6 9 252 255
4 253 257 149 252
4 7 258 259 260
4 260 261 251 170
4 169 260 251 170
4 169 251 167 170
4 166 167 145 171
4 16 22 18 130
4 25 24 20 23
4 24 25 118 28
4 119 156 118 45
4 119 28 45 118
4 119 45 44 158
4 44 38 28 29
4 25 28 26 30
4 25 24 26 28
4 24 20 234 163
4 162 24 234 163
4 163 119 118 25
4 235 135 133 136
4 135 134 140 133
4 145 141 153 144
4 145 260 169 151
4 0 258 4 5
4 259 258 262 263
4 264 259 262 263
4 258 7 262 0
4 260 258 259 261
4 258 261 263 259
4 261 258 263 265
4 261 260 251 259
4 167 251 169 145
4 145 260 251 169
4 166 167 171 168
4 16 171 153 140
4 137 135 136 134
4 138 135 235 136
4 235 138 136 164
4 236 119 156 164
4 157 156 159 47
4 155 47 48 40
4 40 49 48 155
4 46 52 174 48
4 247 225 220 54
4 110 225 57 227
4 60 59 57 226
4 104 61 211 62
4 232 211 62 231
4 103 104 211 231
4 239 210 103 241
4 241 93 103 100
4 68 72 93 70
4 103 207 68 93
4 207 103 211 210
4 210 208 231 211
4 103 210 231 211
4 245 207 210 93
4 245 207 209 210
4 245 207 93 95
4 70 95 74 93
4 70 73 74 182
4 182 203 183 74
4 202 74 205 94
4 93 89 90 74
4 89 241 100 93
4 93 98 103 100
4 101 104 102 103
4 104 101 102 106
4 106 238 104 212
4 266 216 212 106
4 106 238 212 266
4 106 238 102 104
4 267 266 238 102
4 97 102 267 238
4 106 238 266 102
4 97 102 238 103
4 97 102 103 98
4 97 102 98 267
4 97 98 242 267
4 96 98 99 242
4 89 98 99 93
4 239 101 100 103
4 104 179 239 101
4 179 249 239 101
4 105 179 101 249
4 233 105 249 179
4 177 181 57 230
4 175 57 177 178
4 175 237 51 178
4 55 54 51 178
4 112 111 109 53
4 112 53 52 113
4 117 115 113 114
4 116 118 117 161
4 115 116 117 161
4 28 115 161 32
4 29 32 26 34
4 26 30 29 27
4 34 26 29 27
4 29 34 31 32
4 31 115 32 35
4 31 115 28 32
4 246 112 52 35
4 246 247 52 54
4 247 110 225 54
4 59 227 57 226
4 213 104 238 212
4 104 103 63 238
4 97 98 103 93
4 70 73 72 74
4 71 182 268 73
4 182 75 268 73
4 182 75 183 268
4 183 81 268 75
4 182 75 74 183
4 79 81 183 75
4 79 81 80 194
4 78 192 80 82
4 192 193 80 82
4 269 193 192 82
4 193 192 80 185
4 80 79 194 185
4 77 74 75 79
4 85 96 76 74
4 96 243 242 99
4 98 102 103 100
4 104 105 106 230
4 214 218 230 177
4 50 175 51 54
4 49 155 223 48
4 157 156 236 159
4 236 119 159 156
4 235 119 164 136
4 236 119 164 235
4 133 235 120 123
4 120 235 133 119
4 135 123 235 133
4 124 173 123 126
4 173 172 126 154
4 166 171 154 172
4 172 171 154 173
4 171 16 154 173
4 171 166 154 153
4 16 171 154 153
4 124 173 16 133
4 124 173 133 123
4 25 133 119 121
4 19 16 133 21
4 163 19 133 21
4 134 19 133 136
4 133 119 136 163
4 133 19 163 136
4 132 20 18 19
4 20 132 234 19
4 20 19 163 21
4 22 20 21 18
4 16 22 21 18
4 128 129 127 21
4 160 129 21 127
4 160 21 25 127
4 25 20 21 23
4 25 27 23 160
4 25 27 30 26
4 23 22 21 160
4 16 129 21 22
4 128 130 165 270
4 128 130 270 129
4 128 130 16 165
4 16 165 153 154
4 17 16 14 153
4 131 17 18 14
4 17 141 153 15
4 12 10 15 153
4 15 17 14 153
4 153 16 14 130
4 16 129 22 130
4 128 130 129 16
4 16 128 165 154
4 151 166 153 165
4 260 145 7 151
4 9 6 252 7
4 7 262 252 149
4 260 259 7 251
4 7 259 147 251
4 264 259 271 149
4 259 7 147 149
4 146 148 147 149
4 271 259 147 149
4 148 271 147 149
4 146 142 143 141
4 144 141 140 139
4 141 134 140 139
4 143 141 144 139
4 142 145 141 146
4 145 142 141 144
4 148 142 143 146
4 145 7 10 146
4 145 150 151 153
4 151 272 150 7
4 151 272 273 150
4 151 272 4 273
4 4 272 2 273
4 151 272 7 4
4 4 260 7 151
4 166 145 151 153
4 166 145 169 151
4 171 166 153 145
4 133 16 140 173
4 124 16 21 133
4 25 21 160 23
4 21 129 160 22
4 121 21 124 127
4 121 120 133 119
4 123 121 125 120
4 123 121 120 133
4 25 133 121 21
4 25 20 163 21
4 118 24 28 161
4 26 28 161 32
4 40 115 28 31
4 115 52 113 112
4 246 112 109 52
4 246 52 109 54
4 56 54 109 55
4 56 107 55 248
4 58 60 59 57
4 63 61 65 104
4 68 72 70 67
4 182 75 73 74
4 77 79 75 80
4 196 79 185 194
4 79 78 185 80
4 77 78 82 84
4 83 77 82 84
4 77 74 84 76
4 96 74 93 72
4 103 66 93 68
4 65 66 69 63
4 63 61 104 213
4 61 60 104 213
4 59 227 226 228
4 274 110 227 225
4 246 36 247 37
4 246 36 35 52
4 52 115 40 31
4 28 31 38 40
4 44 42 158 45
4 120 44 122 158
4 135 133 140 173
4 171 16 173 140
4 171 144 153 140
4 141 144 140 153
4 10 141 15 153
4 10 12 15 13
4 10 8 12 13
4 8 10 12 11
4 8 9 11 255
4 9 253 149 252
4 257 262 149 252
4 262 259 149 7
4 258 7 4 260
4 259 258 7 262
4 262 0 7 252
4 0 6 7 252
4 254 6 252 255
4 0 3 6 252
4 6 3 254 252
4 272 6 11 7
4 4 6 272 7
4 4 6 2 272
4 9 6 11 255
4 9 253 252 255
4 262 264 257 149
4 257 264 275 271
4 259 264 262 149
4 257 264 271 149
4 9 146 7 149
4 10 7 11 9
4 7 12 10 11
4 145 150 153 12
4 12 145 10 153
4 145 146 10 141
4 145 142 147 146
4 171 145 153 144
4 171 142 145 144
4 142 171 145 167
4 142 145 147 167
4 167 145 147 251
4 145 260 7 251
4 145 150 12 7
4 12 145 7 10
4 12 152 153 14
4 152 153 14 130
4 152 151 153 165
4 165 152 276 270
4 152 151 165 276
4 165 152 270 130
4 152 151 276 150
4 276 150 151 273
4 272 7 11 150
4 7 12 11 150
4 153 150 152 12
4 165 16 153 130
4 165 152 130 153
4 15 12 153 14
4 13 131 14 15
4 17 131 15 14
4 17 132 18 19
4 25 24 163 20
4 25 24 118 163
4 119 156 164 118
4 118 117 45 156
4 155 45 117 156
4 113 40 117 155
4 50 49 224 48
4 49 50 224 51
4 50 237 224 51
4 237 50 175 51
4 52 54 220 174
4 52 247 220 54
4 39 247 220 52
4 39 247 52 36
4 115 52 35 31
4 40 115 52 113
4 40 115 113 117
4 115 112 113 114
4 53 52 51 54
4 54 53 109 55
4 52 53 109 54
4 110 246 109 54
4 247 110 54 246
4 247 110 274 225
4 246 274 37 247
4 247 110 246 274
4 110 225 54 57
4 57 217 226 219
4 57 217 218 230
4 219 218 54 57
4 218 54 174 220
4 46 39 52 40
4 39 31 52 40
4 38 42 45 40
4 28 38 44 45
4 121 25 44 119
4 123 135 173 133
4 134 153 140 16
4 134 16 140 133
4 137 135 134 140
4 134 153 141 140
4 134 153 16 17
4 16 17 19 134
4 134 153 17 141
4 153 145 10 141
4 6 9 11 7
4 258 7 0 4
4 1 0 2 5

CELL_TYPES 734
10
10
10
10
10
10
10
10
10
10
10
10
10
10
10
10
10
10
10
10
10
10
10
10
10
10
10
10
10
10
10
10
10
10
10
10
10
10
10
10
10
10
10
10
10
10
10
10
10
10
10
10
10
10
10
10
10
10
10
10
10
10
10
10
10
10
10
10
10
10
10
10
10
10
10
10
10
10
10
10
10
10
10
10
10
10
10
10
10
10
10
10
10
10
10
10
10
10
10
10
10
10
10
10
10
10
10
10
10
10
10
10
10
10
10
10
10
10
10
10
10
10
10
10
10
10
10
10
10
10
10
10
10
10
10
10
10
10
10
10
10
10
10
10
10
10
10
10
10
10
10
10
10
10
10
10
10
10
10
10
10
10
10
10
10
10
10
10
10
10
10
10
10
10
10
10
10
10
10
10
10
10
10
10
10
10
10
10
10
10
10
10
10
10
10
10
10
10
10
10
10
10
10
10
10
10
10
10
10
10
10
10
10
10
10
10
10
10
10
10
10
10
10
10
10
10
10
10
10
10
10
10
10
10
10
10
10
10
10
10
10
10
10
10
10
10
10
10
10
10
10
10
10
10
10
10
10
10
10
10
10
10
10
10
10
10
10
10
10
10
10
10
10
10
10
10
10
10
10
10
10
10
10
10
10
10
10
10
10
10
10
10
10
10
10
10
10
10
10
10
10
10
10
10
10
10
10
10
10
10
10
10
10
10
10
10
10
10
10
10
10
10
10
10
10
10
10
10
10
10
10
10
10
10
10
10
10
10
10
10
10
10
10
10
10
10
10
10
10
10
10
10
10
10
10
10
10
10
10
10
10
10
10
10
10
10
10
10
10
10
10
10
10
10
10
10
10
10
10
10
10
10
10
10
10
10
10
10
10
10
10
10
10
10
10
10
10
10
10
10
10
10
10
10
10
10
10
10
10
10
10
10
10
10
10
10
10
10
10
10
10
10
10
10
10
10
10
10
10
10
10
10
10
10
10
10
10
10
10
10
10
10
10
10
10
10
10
10
10
10
10
10
10
10
10
10
10
10
10
10
10
10
10
10
10
10
10
10
10
10
10
10
10
10
10
10
10
10
10
10
10
10
10
10
10
10
10
10
10
10
10
10
10
10
10
10
10
10
10
10
10
10
10
10
10
10
10
10
10
10
10
10
10
10
10
10
10
10
10
10
10
10
10
10
10
10
10
10
10
10
10
10
10
10
10
10
10
10
10
10
10
10
10
10
10
10
10
10
10
10
10
10
10
10
10
10
10
10
10
10
10
10
10
10
10
10
10
10
10
10
10
10
10
10
10
10
10
10
10
10
10
10
10
10
10
10
10
10
10
10
10
10
10
10
10
10
10
10
10
10
10
10
10
10
10
10
10
10
10
10
10
10
10
10
10
10
10
10
10
10
10
10
10
10
10
10
10
10
10
10
10
10
10
10
10
10
10
10
10
10
10
10
10
10
10
10
10
10
10
10
10
10
10
10
10
10
10
10
10
10
10
10
10
10
10
10
10
10
10
10
10
10
10
10
10
10
10
10
10
10
10
10
10
10
10
10
10
10
10
10
10
10
10
10
10
10
10
10
10
10
10
10
10
10
10
10
10
10
10
10
10
10
10
10
10
10
10
10
10
10
10
10
10
10
10
10
10
10
10
10
10
10
10
10

CELL_DATA 734
SCALARS potentialEnergy FLOAT 1
LOOKUP_TABLE default
64.675911
40.165785
118.928856
322.774292
88.384903
308.475464
169.306015
230.630386
69.042294
25.739564
62.432709
19.784908
43.765034
93.417976
109.683128
199.974411
90.362122
153.661972
57.226307
279.667938
218.735626
104.075577
153.621414
71.116386
81.726189
160.396561
236.948593
107.343071
127.763046
105.297020
100.709457
95.732368
39.927237
78.564545
264.306091
121.860252
120.101852
35.843302
31.494238
63.091568
43.834209
44.065098
61.517368
37.938065
68.129040
73.804085
156.034546
149.664734
69.426559
70.513660
207.665787
115.376999
130.914253
63.022980
113.820938
129.326515
79.972870
31.884033
137.356392
159.951660
69.590511
148.905014
214.263214
398.034729
97.336830
144.871887
95.805000
101.199966
56.676823
85.133675
32.957056
37.124691
26.024189
29.351734
97.327820
123.641190
385.287476
53.603054
92.532028
117.412689
86.771889
84.191048
104.655739
135.975494
376.151825
454.487915
204.038300
230.988922
233.439865
542.195068
93.767189
22.139977
51.946823
43.375614
65.949421
192.792252
65.005894
123.937134
86.329811
77.713295
82.358849
71.426147
28.540314
27.260185
33.486488
31.136206
34.141214
66.732182
62.458588
25.423537
25.151181
48.299244
42.294529
131.356926
179.813507
43.462261
79.707672
34.781298
50.110188
67.111061
38.981758
28.547653
102.167854
182.002274
239.318054
371.268250
55.218189
42.717396
51.229473
21.532296
156.308014
72.628082
109.397835
96.158928
117.285706
91.372536
113.544289
42.339573
114.892151
85.471062
88.823730
78.175568
92.726562
135.940323
118.964378
240.354462
112.548523
78.964470
102.731087
73.585007
285.295471
71.002560
46.064671
114.715492
123.682930
73.299412
19.578605
117.842690
116.453453
87.720039
74.648560
127.694977
36.112864
53.279606
108.473495
53.312111
136.010048
167.423386
57.297485
100.713417
49.981289
47.088737
76.954987
88.081337
44.551785
67.985229
135.268723
91.823105
52.101830
62.258911
140.496307
38.343439
169.125992
23.242606
80.632439
94.472015
289.161102
57.943985
155.160980
41.123163
90.976006
72.038544
74.913361
222.876221
248.653778
182.153961
141.553940
47.437832
93.323624
147.174774
211.747375
220.882690
103.000534
84.289238
54.515472
100.631821
168.058838
201.553024
157.075684
230.038879
87.230431
49.998775
63.309574
62.019035
51.907333
246.400620
251.650757
63.339127
82.916588
157.145615
90.788940
128.107765
71.974106
85.336525
21.785572
51.979267
103.158318
91.955292
213.723190
164.116547
65.363815
61.011234
33.108696
36.519125
41.729507
41.840393
84.467178
59.119774
66.758030
60.120354
68.189713
203.942169
129.188087
125.675827
24.418057
318.845825
114.345619
222.496231
210.116531
251.239807
61.289768
112.037399
70.692379
77.804337
72.374218
144.976593
175.584824
133.674049
168.530212
224.250534
106.197365
112.432526
133.969345
98.315689
165.818253
90.213074
134.186264
51.831585
105.750786
208.344971
483.925049
141.396912
163.990051
145.062851
140.769623
78.352455
176.275009
70.688068
51.846760
52.587654
37.661869
37.957613
48.525391
27.990625
33.207905
45.019691
24.490627
83.604271
90.051056
157.106018
173.337891
140.160233
276.491394
106.224571
103.750420
121.144234
177.909592
201.681168
159.702423
62.188919
49.648548
129.916931
100.143990
163.514069
145.008408
43.481468
52.595287
96.236313
138.478134
33.414318
87.740845
109.220848
237.621094
200.983810
119.437462
166.906418
81.905632
35.560814
57.823215
208.285019
123.933212
257.665833
85.987946
25.657733
131.809502
140.859741
79.259354
99.953377
48.015095
53.273453
39.408831
57.306599
74.938812
133.058151
46.323524
111.145950
71.244640
145.679642
61.340939
94.443176
151.474625
111.907196
69.754311
88.115692
99.331154
192.004852
176.072113
82.598488
74.126724
115.524147
40.998804
78.083397
38.153633
28.164089
179.058533
85.197289
198.125793
80.826431
86.391022
106.291138
90.855553
86.820320
57.430031
268.830200
174.337524
184.236755
102.114388
66.828255
30.891756
88.224754
181.294388
43.331287
149.029770
368.931427
322.421051
20.254384
40.857012
35.979359
171.911972
17.736744
61.698227
344.471497
170.122284
192.976013
459.094330
103.580330
79.961273
28.722626
114.942642
71.934124
106.877579
76.652359
41.996950
31.453962
34.313692
60.011974
35.273386
67.061634
64.226742
164.255707
189.366333
75.521454
629.913879
436.893707
36.916708
147.605606
150.279800
45.487804
163.316895
470.136261
310.872711
304.908966
156.671692
51.793087
60.325455
40.663439
74.665665
73.792416
53.566795
53.092037
133.433083
68.507416
230.432953
143.041901
159.056198
85.602501
187.563385
122.142273
237.284409
112.203522
250.287277
149.524475
60.497490
171.135117
214.415390
96.505844
217.939316
366.603455
87.669479
88.944489
72.629410
129.296707
154.640915
209.360733
66.653923
56.828873
146.200195
309.117523
97.492218
68.624451
88.908737
30.320398
26.889383
112.435478
92.199753
80.197304
48.658966
58.203117
136.528687
205.568619
73.109558
44.087715
44.715797
134.288818
86.730255
77.714951
148.606613
145.820633
212.523209
228.198654
90.524323
60.455627
50.345299
40.274920
56.999649
96.771484
54.452702
57.597343
265.874039
259.383820
196.856308
320.026489
270.368317
221.155380
310.222687
124.182121
174.226547
195.484085
99.445442
61.705898
50.841507
129.029381
94.060219
293.258698
85.795059
117.945061
126.266174
202.942062
138.968155
38.464104
130.029266
105.674904
121.665833
100.117104
31.073030
196.822800
299.653961
65.187950
104.094398
119.181419
102.323784
121.655350
31.707338
61.087521
29.584436
27.071934
78.675148
136.290154
93.305779
286.005249
288.288086
235.894119
87.445999
41.273163
42.129520
121.702072
57.873741
62.837219
43.460171
46.407883
27.361849
32.166243
101.780174
60.602844
57.291718
94.436783
62.821308
13.705391
66.492771
30.116989
27.073202
17.526660
38.966621
213.814804
74.662834
92.434616
110.593506
377.319946
103.278831
217.151459
205.288925
270.839142
163.474243
61.280094
62.220375
103.202316
36.798161
226.533035
188.435135
47.953999
262.182556
205.624191
95.813843
538.618286
632.137390
217.603378
363.701447
147.658707
105.807266
102.894218
183.333298
459.773315
272.073029
160.964981
142.119019
120.576248
360.016022
347.226868
197.594940
179.721893
512.300385
246.982178
57.290676
168.404404
129.456375
85.734879
153.501602
112.889137
55.326569
26.202154
39.107910
33.615353
29.742411
41.772511
45.810356
32.167643
24.918779
188.116699
245.648636
321.541168
190.706711
160.172867
76.769081
87.103348
212.995926
54.046921
49.163719
100.154762
87.071472
76.950043
118.275955
122.659500
58.229935
48.359673
287.291504
77.375435
216.058502
30.534548
152.471710
118.180786
53.511768
270.143616
182.692703
55.620358
123.621529
43.446537
106.017838
120.828979
121.518562
183.266434
133.949257
212.162598
129.655510
211.013519
497.792480
55.061760
20.239284
160.170441
59.493954
57.935749
29.551031
40.413198
79.357895
678.371033
654.247131
478.489685
256.962769
379.365906
506.094452
25.068528
20.442028
289.517059
74.668808
74.544823
238.356064
543.561218
343.980194
155.729416
306.668793
277.449585
799.483704
34.353813
143.803848
249.690155
254.729156
307.721619
199.664032
140.493942
237.230499
291.251404
222.413162
242.764191
147.324524
73.469509
144.957657
274.333344
819.239136
356.445709
274.226959
288.078033
151.102402
244.338730
613.316284
257.498901
103.232338
76.901154
61.994659
48.505875
100.323517
107.848007
101.788620
136.367485
52.945190
89.348732
76.330505
103.665398
117.556122
81.331367
65.388149
249.326080
267.059967
204.152573
130.203667
134.044670
113.921097
246.503387
270.941315
149.849594
292.435486
145.941849
107.821709
145.406769
364.242126
77.297218
79.263084
198.536789
158.408905
161.230179
288.968903
80.560905
68.381905
59.760483
90.654686
225.605667
133.822800
48.798302
203.868591
169.496338
94.947197
142.825226
61.086014
1102.032715
31.384775
52.954651

