# vtk DataFile Version 3.1
Tetrahedral Mesh Visualization
ASCII
DATASET UNSTRUCTURED_GRID

POINTS 277 FLOAT
0.000000 1.378113 1.754166
0.000000 0.000000 0.000000
2.000224 -0.021792 0.022993
0.000000 1.666667 0.000000
2.417241 -0.027281 1.762297
0.000000 0.000000 1.666667
1.694588 2.452151 0.013507
2.997427 2.433414 2.344034
4.013299 4.980324 0.041987
3.082685 4.979755 1.669711
5.215526 4.985100 1.678724
3.495398 3.157964 0.031216
5.405158 3.280677 0.070325
5.999754 4.979181 0.074147
7.349150 3.296602 0.084400
6.967292 4.985658 1.411407
9.246418 2.147727 2.094589
8.685371 4.974567 1.688021
9.320749 3.302732 0.061059
10.641301 4.978330 1.701112
11.308558 3.323591 0.027082
11.102209 1.851559 1.592124
10.654660 1.645836 0.043367
12.648922 1.669140 0.009128
13.303818 3.338823 -0.005722
12.961834 1.880422 1.499437
14.643627 1.678172 -0.017465
13.984985 0.010249 0.003852
15.460242 2.162151 1.658624
15.332834 0.019609 1.650130
13.336656 0.011684 1.681365
17.287640 0.018551 1.589646
16.642633 1.664361 -0.037527
17.973480 -0.003109 -0.026830
15.976146 0.002666 -0.016240
18.642984 1.661494 -0.044779
18.995058 0.008207 1.293296
19.968788 -0.015761 -0.035025
16.758318 0.036890 3.286835
19.019777 0.036384 3.081001
17.712992 2.719383 2.893222
18.035208 0.055429 4.976308
16.712919 1.715906 4.968291
16.038124 0.046820 4.990816
14.709778 0.025456 3.331127
15.785482 2.919858 3.313230
18.761826 1.755401 4.952740
17.345678 3.389148 4.943453
19.317299 3.448902 4.927407
19.333414 5.038840 3.244914
21.031532 3.737954 4.905866
21.331287 5.036766 3.213713
19.629423 2.521613 2.295438
20.639582 5.019989 1.555865
21.911411 2.533889 2.377763
22.630583 5.022437 1.515690
23.235844 3.393231 -0.138015
23.964437 2.480321 2.155986
24.939619 3.682167 -0.184411
24.948240 1.890145 -0.160320
25.962671 2.531988 1.535929
27.206772 1.705865 -0.218084
26.647795 3.398237 -0.229691
29.253553 0.034797 1.384969
27.950811 0.004253 -0.197264
29.249817 1.680740 -0.261704
30.962076 0.027920 1.050989
31.949539 0.012958 -0.296706
31.251883 1.671648 -0.297934
29.948320 0.008152 -0.245692
33.219929 1.669615 -0.346222
33.956516 0.028726 -0.351137
32.665771 0.036128 1.299015
34.587830 0.045703 1.324203
34.993874 2.455943 2.144067
36.505322 0.050946 1.405721
35.177467 0.063729 3.008289
36.875210 0.070160 3.120408
38.352596 2.621305 4.510789
37.680511 2.227431 1.717465
38.321388 0.068947 2.079320
37.962761 0.041865 -0.437745
38.072788 0.094284 4.551477
36.077671 0.089322 4.594670
36.630001 1.838144 4.563574
35.000484 1.413892 4.609624
34.906013 3.208309 4.595083
36.809959 3.577767 4.541784
34.040180 5.068282 4.595760
32.746994 3.364011 4.645510
33.275120 5.051502 2.961129
32.041130 5.064755 4.637812
35.158554 5.066622 2.962508
32.200275 2.640178 2.098405
34.554626 5.034432 1.277276
32.570217 3.338063 -0.353510
33.234344 0.048726 2.983847
30.999798 0.056764 2.842442
31.366858 1.736452 4.700474
33.307007 1.668627 4.648541
30.711203 3.406926 4.682577
28.706814 3.416706 4.720568
29.378544 1.749586 4.736758
30.013155 2.543967 2.184524
27.953293 2.540087 2.232316
26.704321 3.419833 4.764604
27.374908 1.752993 4.781260
24.630133 5.028244 1.467960
21.941774 5.000129 -0.140438
21.288748 3.336872 -0.101056
22.692011 1.697224 -0.105036
19.955957 4.997726 -0.104261
19.297750 3.328910 -0.075953
18.645727 5.018974 1.580963
17.962589 4.996703 -0.081526
17.302677 3.328415 -0.057770
15.967204 5.005999 -0.058100
16.647177 5.014199 1.600137
14.645330 5.015043 1.632798
13.703098 2.973360 3.259403
13.032292 1.342281 5.015250
12.695451 0.012031 3.358316
14.041421 0.026189 5.008391
11.302358 1.615362 5.032970
10.681898 -0.011792 3.380377
12.041770 0.012109 5.030075
10.035315 -0.012693 5.050229
11.333351 -0.006606 1.708224
9.308352 -0.028310 1.741086
9.989301 -0.025746 0.060855
8.670707 1.626898 0.073526
7.977551 4.972987 0.081395
9.967634 4.980006 0.055021
11.230773 2.631443 3.318624
9.258258 4.971554 3.371355
10.763691 3.296991 5.035585
11.317364 4.988813 3.355406
10.025989 4.975042 5.053639
12.026825 5.003564 5.012765
8.016222 4.963331 5.086521
8.755507 3.360301 5.065121
6.965809 4.968746 3.202628
5.355716 3.340413 5.054736
6.001967 4.961675 5.078734
7.040189 3.648685 5.075595
5.132899 2.345487 3.195312
4.618531 4.977960 3.347625
3.480417 3.175527 5.033351
3.993536 4.984345 5.043299
2.370861 4.985384 3.293298
4.841437 1.577466 0.059054
4.901245 -0.031957 1.937265
6.717133 1.613701 0.073970
7.003427 2.531569 2.272341
8.662991 -0.030182 3.408458
17.335104 5.033660 3.263172
15.333838 5.030292 3.290104
16.025448 5.045319 4.951902
14.746511 1.648271 4.988869
15.296925 3.345476 4.965790
11.989547 -0.005819 0.026261
15.302811 3.342845 -0.035009
13.962133 5.012692 -0.017753
12.643369 5.000834 1.670627
13.332928 5.011154 3.322565
7.232922 -0.033655 1.775813
6.670159 -0.023246 3.460714
4.909887 1.626812 5.052333
5.998281 -0.018584 5.070190
4.910941 -0.021210 3.719545
3.992666 -0.014622 5.046438
7.057629 1.859571 5.076680
8.016736 -0.032268 5.063476
9.293830 1.666639 5.054418
21.030241 1.942379 4.920017
22.743603 3.454643 4.866398
24.036936 5.067201 4.808219
24.701452 3.409323 4.819621
23.328886 5.046808 3.163102
27.328119 5.058027 3.054159
26.627226 5.032363 1.408000
25.329590 5.047947 3.112935
35.106186 1.631657 -0.391401
36.785042 1.486759 -0.439155
40.018517 3.340611 3.088658
40.002502 1.710343 2.091024
38.285286 5.073476 2.030330
39.977535 3.326284 1.367776
40.003254 5.089976 2.783989
38.038326 5.102244 4.499798
40.037971 5.117238 4.452567
40.054321 3.443879 4.461329
40.057819 1.772351 4.490734
40.029507 0.082243 2.842838
40.000748 0.067956 1.184147
39.963047 0.051470 -0.476165
39.951088 1.721805 -0.499728
39.920589 3.390497 -0.530941
38.247490 2.507956 -0.482361
37.907578 5.044680 -0.493423
39.951801 5.076283 1.121206
36.842060 5.081321 3.070923
36.473026 5.053008 1.355263
36.444115 3.211229 -0.446988
35.909172 5.031415 -0.449900
34.528542 3.320860 -0.400348
33.919159 5.013228 -0.405670
30.592312 3.342114 -0.312162
29.933283 5.006536 -0.321211
31.928108 5.005738 -0.370213
30.625057 5.030250 1.332579
28.601189 3.353906 -0.271981
26.745300 0.055527 3.216568
27.252209 0.037003 1.506809
25.359577 1.750178 4.829965
24.046202 0.070490 4.888714
26.047876 0.090170 4.853674
25.024733 0.053782 3.545957
23.298513 1.760780 4.879544
23.296783 0.039486 3.281830
21.285580 0.029241 3.247786
22.046906 0.055935 4.921463
20.038149 0.056548 4.954282
18.022316 5.056051 4.920907
20.027485 5.057980 4.900918
22.724108 0.016431 1.599113
24.992031 0.029822 1.758536
23.958221 -0.001153 -0.110779
25.954977 0.003172 -0.152329
25.928638 5.005698 -0.238623
25.717894 2.287163 3.302782
28.627480 5.036644 1.365327
27.929829 5.010777 -0.285075
26.036354 5.076720 4.759108
11.963165 4.999526 0.019576
13.030656 3.130369 5.000742
14.027843 5.029525 4.979595
22.032255 5.060663 4.861377
28.749687 0.058471 3.093389
29.326487 5.057651 3.016131
30.036491 5.080312 4.670509
31.315763 5.052319 2.988630
32.059601 0.080572 4.703179
34.075596 0.069552 4.642407
36.039341 5.090926 4.546626
32.602928 5.033793 1.296556
20.646152 1.663295 -0.063794
20.716913 0.006820 1.564546
23.940145 5.005162 -0.179698
28.034994 5.081096 4.708586
39.899677 5.059839 -0.550267
3.178155 1.451822 5.033718
0.000000 3.103853 1.750106
0.000000 5.000000 1.666667
0.000000 3.333333 0.000000
2.003127 4.981356 0.017951
0.000000 5.000000 0.000000
0.000000 5.000000 3.333333
0.000000 0.000000 3.333333
1.697304 2.459424 5.011998
3.034639 -0.017467 3.422750
1.995391 -0.011112 5.023841
0.000000 2.403264 3.370902
0.000000 1.666667 5.000000
0.000000 3.333333 5.000000
0.000000 0.000000 5.000000
28.051617 0.093126 4.803341
30.055225 0.087571 4.752964
35.956470 0.033307 -0.401495
40.064903 0.107808 4.516781
7.988258 -0.040504 0.083087
1.997940 4.989278 5.011696
3.160608 1.429058 0.034671
4.002150 -0.028222 0.051224
21.963503 -0.003997 -0.078899
0.000000 5.000000 5.000000
5.994691 -0.039418 0.067823

CELLS 734 3670
4 0 1 2 3
4 0 4 2 5
4 0 3 2 6
4 4 6 0 2
4 4 6 7 0
4 8 9 10 11
4 12 13 14 15
4 16 17 14 18
4 19 20 18 21
4 20 22 21 23
4 24 25 26 23
4 25 27 26 23
4 26 28 29 30
4 28 29 31 32
4 33 34 32 31
4 31 33 35 32
4 31 33 36 35
4 33 37 36 35
4 38 39 40 31
4 41 42 43 38
4 44 42 45 38
4 44 42 38 43
4 46 38 42 41
4 46 47 40 48
4 49 50 51 52
4 53 54 51 55
4 56 54 55 57
4 56 58 59 57
4 60 59 61 62
4 63 61 64 65
4 66 67 68 69
4 67 70 71 72
4 73 74 75 76
4 74 77 75 76
4 77 78 79 80
4 79 81 75 80
4 77 78 80 82
4 77 83 76 84
4 83 85 76 84
4 85 86 74 84
4 74 86 87 84
4 88 89 86 90
4 91 89 88 90
4 86 88 90 92
4 90 86 92 74
4 86 89 74 90
4 93 94 95 74
4 70 74 72 93
4 70 73 71 72
4 74 96 73 72
4 66 97 93 72
4 96 97 72 93
4 96 98 97 93
4 85 96 74 99
4 96 98 93 99
4 98 89 100 93
4 101 102 100 103
4 104 105 101 106
4 107 58 57 60
4 58 107 57 56
4 53 108 109 55
4 56 110 109 54
4 53 111 109 108
4 112 53 109 52
4 111 112 113 53
4 112 111 113 114
4 115 116 114 117
4 40 28 115 117
4 45 117 118 28
4 119 28 25 44
4 120 44 121 122
4 123 121 124 125
4 125 123 126 124
4 127 128 21 124
4 16 129 128 21
4 16 18 14 130
4 16 17 18 19
4 131 17 132 18
4 16 19 18 21
4 133 16 19 134
4 135 134 133 136
4 135 137 136 138
4 137 134 139 140
4 141 142 143 144
4 145 146 147 7
4 142 148 147 146
4 7 146 147 149
4 10 7 9 146
4 145 150 7 151
4 152 151 150 153
4 16 128 154 124
4 124 21 121 133
4 25 28 30 44
4 28 38 45 40
4 45 47 40 42
4 155 45 156 47
4 157 156 47 155
4 155 45 40 117
4 45 42 158 159
4 44 42 43 158
4 119 45 158 159
4 120 44 158 119
4 25 127 21 121
4 25 27 160 30
4 127 25 160 30
4 25 127 121 30
4 44 25 121 30
4 28 30 44 29
4 119 28 44 45
4 119 28 118 25
4 28 24 26 161
4 26 32 29 28
4 28 31 29 38
4 46 38 41 39
4 46 38 39 40
4 28 117 40 45
4 118 28 117 161
4 162 24 118 161
4 118 119 163 164
4 136 119 164 163
4 25 133 21 163
4 128 16 21 124
4 165 166 153 154
4 166 167 168 169
4 167 168 169 170
4 171 168 172 166
4 124 173 126 154
4 123 121 133 124
4 120 125 122 121
4 122 158 44 43
4 47 46 40 42
4 52 50 174 48
4 175 50 174 54
4 176 175 177 178
4 179 60 180 181
4 64 69 63 65
4 68 72 67 66
4 70 73 182 71
4 74 79 183 75
4 184 78 185 79
4 79 184 186 187
4 186 184 188 187
4 184 189 190 191
4 184 78 79 186
4 78 189 184 191
4 189 184 190 188
4 184 78 191 192
4 184 78 192 185
4 192 78 80 185
4 193 80 194 185
4 195 81 196 194
4 81 79 196 194
4 197 187 196 198
4 187 79 185 196
4 79 184 187 185
4 197 199 187 198
4 199 197 187 200
4 199 200 187 186
4 78 201 79 186
4 189 201 87 78
4 202 201 79 74
4 201 74 92 87
4 201 202 92 74
4 201 202 79 186
4 202 203 74 79
4 202 198 203 79
4 204 202 199 203
4 202 203 205 74
4 202 204 205 203
4 182 203 74 205
4 74 203 183 79
4 79 203 183 198
4 79 81 198 183
4 81 79 198 196
4 187 79 196 198
4 202 198 79 186
4 202 204 94 205
4 94 95 205 206
4 207 208 209 210
4 208 207 211 210
4 104 103 211 65
4 104 60 212 213
4 214 215 216 217
4 218 219 220 221
4 222 174 220 221
4 46 39 222 174
4 52 46 40 48
4 40 49 52 48
4 53 49 52 113
4 40 49 155 113
4 155 45 47 40
4 157 47 223 155
4 49 223 224 48
4 52 50 51 54
4 175 54 57 178
4 218 175 54 57
4 225 219 54 57
4 218 175 57 177
4 57 217 219 218
4 219 225 226 57
4 225 227 226 57
4 59 110 57 227
4 59 60 61 228
4 61 60 213 228
4 64 61 213 228
4 63 61 213 64
4 61 104 211 65
4 180 60 104 62
4 58 229 62 180
4 58 60 180 62
4 60 61 104 62
4 60 226 230 212
4 226 60 213 212
4 60 104 212 230
4 179 60 230 104
4 104 211 231 62
4 180 229 62 232
4 180 232 62 231
4 179 60 104 180
4 233 181 105 179
4 181 105 179 230
4 105 214 106 230
4 105 214 230 177
4 215 214 218 217
4 215 217 218 219
4 218 215 219 221
4 218 175 174 54
4 39 52 220 174
4 39 46 52 174
4 115 52 112 35
4 28 115 117 161
4 162 118 116 161
4 24 162 118 163
4 20 19 234 163
4 25 133 163 119
4 120 119 158 235
4 236 119 235 159
4 235 119 158 159
4 119 235 133 136
4 138 235 236 164
4 45 47 42 159
4 46 38 40 42
4 49 50 52 48
4 237 175 176 178
4 181 233 177 176
4 180 179 231 104
4 207 103 65 211
4 207 103 68 65
4 65 66 103 68
4 103 66 97 93
4 66 103 97 63
4 213 104 63 238
4 238 97 103 63
4 104 102 103 238
4 104 106 212 230
4 214 212 106 230
4 214 212 216 106
4 214 212 217 216
4 214 212 230 217
4 226 217 230 212
4 226 60 230 57
4 181 60 57 230
4 179 105 104 230
4 179 105 101 104
4 104 239 103 101
4 239 101 240 100
4 91 241 240 100
4 241 239 240 100
4 239 241 103 100
4 103 210 93 241
4 103 207 93 210
4 210 103 231 239
4 103 239 104 231
4 103 104 63 65
4 65 66 63 103
4 65 66 68 69
4 68 72 66 93
4 96 98 242 97
4 85 96 99 243
4 85 86 99 74
4 86 89 99 74
4 88 86 244 92
4 74 86 92 87
4 201 244 87 92
4 244 86 87 92
4 90 74 92 94
4 94 95 206 245
4 95 209 206 245
4 245 207 95 209
4 208 232 231 211
4 180 104 231 62
4 181 60 107 57
4 54 175 51 178
4 50 52 174 54
4 246 36 52 247
4 246 36 37 35
4 52 31 36 35
4 31 39 52 36
4 39 46 222 41
4 39 222 174 220
4 174 218 220 221
4 218 219 54 220
4 225 219 220 54
4 56 110 54 57
4 110 56 59 57
4 60 59 226 228
4 60 226 213 228
4 57 217 230 226
4 214 217 230 218
4 218 57 230 177
4 181 105 230 177
4 179 60 181 230
4 58 107 180 60
4 229 107 58 248
4 229 107 180 58
4 60 58 59 62
4 58 107 56 248
4 108 56 109 55
4 108 56 55 248
4 107 56 55 57
4 107 181 57 178
4 57 181 177 178
4 181 176 177 178
4 233 181 177 105
4 249 239 101 240
4 91 89 241 100
4 89 91 241 90
4 210 245 93 241
4 245 241 90 93
4 93 94 90 245
4 74 202 92 94
4 205 204 94 206
4 202 198 199 203
4 202 198 186 199
4 199 197 200 250
4 199 186 187 198
4 200 186 188 187
4 184 189 186 188
4 201 189 87 244
4 189 201 78 186
4 201 78 79 87
4 189 78 184 186
4 186 79 187 198
4 74 201 79 87
4 74 79 84 87
4 79 78 84 87
4 77 78 84 79
4 74 77 84 79
4 74 85 84 76
4 83 243 76 85
4 85 96 243 76
4 73 96 74 76
4 96 93 74 99
4 89 93 99 74
4 93 94 74 90
4 93 94 245 95
4 207 95 68 93
4 95 70 68 93
4 95 70 74 205
4 74 70 182 205
4 94 95 74 205
4 241 89 90 93
4 104 179 231 239
4 181 60 180 107
4 107 57 55 178
4 57 54 55 178
4 53 49 51 52
4 40 49 113 52
4 155 47 223 48
4 45 47 159 156
4 119 156 45 159
4 120 44 119 121
4 16 173 124 154
4 166 167 169 145
4 145 7 147 251
4 9 7 252 149
4 253 254 252 255
4 256 253 255 254
4 6 9 252 255
4 253 257 149 252
4 7 258 259 260
4 260 261 251 170
4 169 260 251 170
4 169 251 167 170
4 166 167 145 171
4 16 22 18 130
4 25 24 20 23
4 24 25 118 28
4 119 156 118 45
4 119 28 45 118
4 119 45 44 158
4 44 38 28 29
4 25 28 26 30
4 25 24 26 28
4 24 20 234 163
4 162 24 234 163
4 163 119 118 25
4 235 135 133 136
4 135 134 140 133
4 145 141 153 144
4 145 260 169 151
4 0 258 4 5
4 259 258 262 263
4 264 259 262 263
4 258 7 262 0
4 260 258 259 261
4 258 261 263 259
4 261 258 263 265
4 261 260 251 259
4 167 251 169 145
4 145 260 251 169
4 166 167 171 168
4 16 171 153 140
4 137 135 136 134
4 138 135 235 136
4 235 138 136 164
4 236 119 156 164
4 157 156 159 47
4 155 47 48 40
4 40 49 48 155
4 46 52 174 48
4 247 225 220 54
4 110 225 57 227
4 60 59 57 226
4 104 61 211 62
4 232 211 62 231
4 103 104 211 231
4 239 210 103 241
4 241 93 103 100
4 68 72 93 70
4 103 207 68 93
4 207 103 211 210
4 210 208 231 211
4 103 210 231 211
4 245 207 210 93
4 245 207 209 210
4 245 207 93 95
4 70 95 74 93
4 70 73 74 182
4 182 203 183 74
4 202 74 205 94
4 93 89 90 74
4 89 241 100 93
4 93 98 103 100
4 101 104 102 103
4 104 101 102 106
4 106 238 104 212
4 266 216 212 106
4 106 238 212 266
4 106 238 102 104
4 267 266 238 102
4 97 102 267 238
4 106 238 266 102
4 97 102 238 103
4 97 102 103 98
4 97 102 98 267
4 97 98 242 267
4 96 98 99 242
4 89 98 99 93
4 239 101 100 103
4 104 179 239 101
4 179 249 239 101
4 105 179 101 249
4 233 105 249 179
4 177 181 57 230
4 175 57 177 178
4 175 237 51 178
4 55 54 51 178
4 112 111 109 53
4 112 53 52 113
4 117 115 113 114
4 116 118 117 161
4 115 116 117 161
4 28 115 161 32
4 29 32 26 34
4 26 30 29 27
4 34 26 29 27
4 29 34 31 32
4 31 115 32 35
4 31 115 28 32
4 246 112 52 35
4 246 247 52 54
4 247 110 225 54
4 59 227 57 226
4 213 104 238 212
4 104 103 63 238
4 97 98 103 93
4 70 73 72 74
4 71 182 268 73
4 182 75 268 73
4 182 75 183 268
4 183 81 268 75
4 182 75 74 183
4 79 81 183 75
4 79 81 80 194
4 78 192 80 82
4 192 193 80 82
4 269 193 192 82
4 193 192 80 185
4 80 79 194 185
4 77 74 75 79
4 85 96 76 74
4 96 243 242 99
4 98 102 103 100
4 104 105 106 230
4 214 218 230 177
4 50 175 51 54
4 49 155 223 48
4 157 156 236 159
4 236 119 159 156
4 235 119 164 136
4 236 119 164 235
4 133 235 120 123
4 120 235 133 119
4 135 123 235 133
4 124 173 123 126
4 173 172 126 154
4 166 171 154 172
4 172 171 154 173
4 171 16 154 173
4 171 166 154 153
4 16 171 154 153
4 124 173 16 133
4 124 173 133 123
4 25 133 119 121
4 19 16 133 21
4 163 19 133 21
4 134 19 133 136
4 133 119 136 163
4 133 19 163 136
4 132 20 18 19
4 20 132 234 19
4 20 19 163 21
4 22 20 21 18
4 16 22 21 18
4 128 129 127 21
4 160 129 21 127
4 160 21 25 127
4 25 20 21 23
4 25 27 23 160
4 25 27 30 26
4 23 22 21 160
4 16 129 21 22
4 128 130 165 270
4 128 130 270 129
4 128 130 16 165
4 16 165 153 154
4 17 16 14 153
4 131 17 18 14
4 17 141 153 15
4 12 10 15 153
4 15 17 14 153
4 153 16 14 130
4 16 129 22 130
4 128 130 129 16
4 16 128 165 154
4 151 166 153 165
4 260 145 7 151
4 9 6 252 7
4 7 262 252 149
4 260 259 7 251
4 7 259 147 251
4 264 259 271 149
4 259 7 147 149
4 146 148 147 149
4 271 259 147 149
4 148 271 147 149
4 146 142 143 141
4 144 141 140 139
4 141 134 140 139
4 143 141 144 139
4 142 145 141 146
4 145 142 141 144
4 148 142 143 146
4 145 7 10 146
4 145 150 151 153
4 151 272 150 7
4 151 272 273 150
4 151 272 4 273
4 4 272 2 273
4 151 272 7 4
4 4 260 7 151
4 166 145 151 153
4 166 145 169 151
4 171 166 153 145
4 133 16 140 173
4 124 16 21 133
4 25 21 160 23
4 21 129 160 22
4 121 21 124 127
4 121 120 133 119
4 123 121 125 120
4 123 121 120 133
4 25 133 121 21
4 25 20 163 21
4 118 24 28 161
4 26 28 161 32
4 40 115 28 31
4 115 52 113 112
4 246 112 109 52
4 246 52 109 54
4 56 54 109 55
4 56 107 55 248
4 58 60 59 57
4 63 61 65 104
4 68 72 70 67
4 182 75 73 74
4 77 79 75 80
4 196 79 185 194
4 79 78 185 80
4 77 78 82 84
4 83 77 82 84
4 77 74 84 76
4 96 74 93 72
4 103 66 93 68
4 65 66 69 63
4 63 61 104 213
4 61 60 104 213
4 59 227 226 228
4 274 110 227 225
4 246 36 247 37
4 246 36 35 52
4 52 115 40 31
4 28 31 38 40
4 44 42 158 45
4 120 44 122 158
4 135 133 140 173
4 171 16 173 140
4 171 144 153 140
4 141 144 140 153
4 10 141 15 153
4 10 12 15 13
4 10 8 12 13
4 8 10 12 11
4 8 9 11 255
4 9 253 149 252
4 257 262 149 252
4 262 259 149 7
4 258 7 4 260
4 259 258 7 262
4 262 0 7 252
4 0 6 7 252
4 254 6 252 255
4 0 3 6 252
4 6 3 254 252
4 272 6 11 7
4 4 6 272 7
4 4 6 2 272
4 9 6 11 255
4 9 253 252 255
4 262 264 257 149
4 257 264 275 271
4 259 264 262 149
4 257 264 271 149
4 9 146 7 149
4 10 7 11 9
4 7 12 10 11
4 145 150 153 12
4 12 145 10 153
4 145 146 10 141
4 145 142 147 146
4 171 145 153 144
4 171 142 145 144
4 142 171 145 167
4 142 145 147 167
4 167 145 147 251
4 145 260 7 251
4 145 150 12 7
4 12 145 7 10
4 12 152 153 14
4 152 153 14 130
4 152 151 153 165
4 165 152 276 270
4 152 151 165 276
4 165 152 270 130
4 152 151 276 150
4 276 150 151 273
4 272 7 11 150
4 7 12 11 150
4 153 150 152 12
4 165 16 153 130
4 165 152 130 153
4 15 12 153 14
4 13 131 14 15
4 17 131 15 14
4 17 132 18 19
4 25 24 163 20
4 25 24 118 163
4 119 156 164 118
4 118 117 45 156
4 155 45 117 156
4 113 40 117 155
4 50 49 224 48
4 49 50 224 51
4 50 237 224 51
4 237 50 175 51
4 52 54 220 174
4 52 247 220 54
4 39 247 220 52
4 39 247 52 36
4 115 52 35 31
4 40 115 52 113
4 40 115 113 117
4 115 112 113 114
4 53 52 51 54
4 54 53 109 55
4 52 53 109 54
4 110 246 109 54
4 247 110 54 246
4 247 110 274 225
4 246 274 37 247
4 247 110 246 274
4 110 225 54 57
4 57 217 226 219
4 57 217 218 230
4 219 218 54 57
4 218 54 174 220
4 46 39 52 40
4 39 31 52 40
4 38 42 45 40
4 28 38 44 45
4 121 25 44 119
4 123 135 173 133
4 134 153 140 16
4 134 16 140 133
4 137 135 134 140
4 134 153 141 140
4 134 153 16 17
4 16 17 19 134
4 134 153 17 141
4 153 145 10 141
4 6 9 11 7
4 258 7 0 4
4 1 0 2 5

CELL_TYPES 734
10
10
10
10
10
10
10
10
10
10
10
10
10
10
10
10
10
10
10
10
10
10
10
10
10
10
10
10
10
10
10
10
10
10
10
10
10
10
10
10
10
10
10
10
10
10
10
10
10
10
10
10
10
10
10
10
10
10
10
10
10
10
10
10
10
10
10
10
10
10
10
10
10
10
10
10
10
10
10
10
10
10
10
10
10
10
10
10
10
10
10
10
10
10
10
10
10
10
10
10
10
10
10
10
10
10
10
10
10
10
10
10
10
10
10
10
10
10
10
10
10
10
10
10
10
10
10
10
10
10
10
10
10
10
10
10
10
10
10
10
10
10
10
10
10
10
10
10
10
10
10
10
10
10
10
10
10
10
10
10
10
10
10
10
10
10
10
10
10
10
10
10
10
10
10
10
10
10
10
10
10
10
10
10
10
10
10
10
10
10
10
10
10
10
10
10
10
10
10
10
10
10
10
10
10
10
10
10
10
10
10
10
10
10
10
10
10
10
10
10
10
10
10
10
10
10
10
10
10
10
10
10
10
10
10
10
10
10
10
10
10
10
10
10
10
10
10
10
10
10
10
10
10
10
10
10
10
10
10
10
10
10
10
10
10
10
10
10
10
10
10
10
10
10
10
10
10
10
10
10
10
10
10
10
10
10
10
10
10
10
10
10
10
10
10
10
10
10
10
10
10
10
10
10
10
10
10
10
10
10
10
10
10
10
10
10
10
10
10
10
10
10
10
10
10
10
10
10
10
10
10
10
10
10
10
10
10
10
10
10
10
10
10
10
10
10
10
10
10
10
10
10
10
10
10
10
10
10
10
10
10
10
10
10
10
10
10
10
10
10
10
10
10
10
10
10
10
10
10
10
10
10
10
10
10
10
10
10
10
10
10
10
10
10
10
10
10
10
10
10
10
10
10
10
10
10
10
10
10
10
10
10
10
10
10
10
10
10
10
10
10
10
10
10
10
10
10
10
10
10
10
10
10
10
10
10
10
10
10
10
10
10
10
10
10
10
10
10
10
10
10
10
10
10
10
10
10
10
10
10
10
10
10
10
10
10
10
10
10
10
10
10
10
10
10
10
10
10
10
10
10
10
10
10
10
10
10
10
10
10
10
10
10
10
10
10
10
10
10
10
10
10
10
10
10
10
10
10
10
10
10
10
10
10
10
10
10
10
10
10
10
10
10
10
10
10
10
10
10
10
10
10
10
10
10
10
10
10
10
10
10
10
10
10
10
10
10
10
10
10
10
10
10
10
10
10
10
10
10
10
10
10
10
10
10
10
10
10
10
10
10
10
10
10
10
10
10
10
10
10
10
10
10
10
10
10
10
10
10
10
10
10
10
10
10
10
10
10
10
10
10
10
10
10
10
10
10
10
10
10
10
10
10
10
10
10
10
10
10
10
10
10
10
10
10
10
10
10
10
10
10
10
10
10
10
10
10
10
10
10
10
10
10
10
10
10
10
10
10
10
10
10
10
10
10
10
10
10
10
10
10
10
10
10
10
10
10
10
10
10
10
10
10
10
10
10
10
10
10
10
10
10
10
10
10
10
10
10
10
10
10
10
10
10
10
10
10
10
10
10
10
10
10
10
10
10
10
10
10
10
10
10
10
10
10
10
10
10
10
10
10
10
10
10
10
10
10
10
10
10
10
10
10
10

CELL_DATA 734
SCALARS potentialEnergy FLOAT 1
LOOKUP_TABLE default
151.016296
165.224274
228.667053
195.771805
336.695801
195.652725
166.740051
150.758408
182.157562
92.577248
61.409126
96.842346
83.511192
96.195267
76.156700
80.776871
101.879913
101.733421
99.068573
30.192789
33.032234
47.811802
25.208853
104.270973
56.576046
136.469360
71.238087
80.202621
54.322601
74.746887
29.031757
139.147049
52.413021
25.934605
53.369045
68.454704
50.398640
32.492907
49.996208
65.796371
39.336660
29.924940
44.519947
44.106590
48.363430
44.397099
73.177227
28.413708
77.536484
66.355919
110.825172
97.691582
220.996613
75.317886
229.992477
243.236847
81.145905
31.860645
70.072319
66.667202
80.072166
157.779358
117.192108
112.777382
32.572754
61.559975
57.291965
100.818604
56.375328
69.262100
27.041300
60.806126
43.139561
135.006050
319.465240
221.377747
200.364151
178.351822
127.607460
129.402031
294.315277
216.863525
169.132004
224.364334
344.925873
129.524246
430.004547
283.576111
480.032104
269.383942
131.028542
140.456680
151.690018
91.537231
20.984795
170.866333
38.081711
29.242599
47.948437
47.195019
40.194960
59.642170
87.688347
66.791107
79.171127
103.366920
38.246901
45.961014
38.847761
40.965929
54.470642
93.350471
120.659904
27.699547
74.387390
110.487282
48.650730
45.418266
98.389687
106.985405
99.189583
48.000256
229.483521
78.042831
66.279015
276.916779
76.872360
146.128433
33.780157
56.357292
38.481073
108.496574
187.956894
55.748230
111.609398
56.786331
25.010981
103.119682
79.645859
50.124760
56.751427
38.469055
82.848694
133.448563
43.764973
124.466255
52.830326
68.488247
102.027473
108.788666
68.720867
126.021324
153.483383
54.862015
65.024883
112.886734
48.393269
41.387709
115.951271
50.234867
81.322304
53.696972
38.213236
92.497147
93.389061
71.763836
121.604790
87.452995
49.159927
68.594975
63.652859
48.083805
55.648197
74.287354
54.250092
162.001328
43.696018
42.742760
92.896912
62.868641
39.773371
94.509689
65.595131
30.453270
101.249466
54.518349
43.788773
109.193245
63.122940
33.114214
84.492081
39.595917
33.877249
81.946014
70.182983
100.709770
76.618347
95.094696
139.813309
67.770584
26.586645
157.418594
59.084641
50.222446
34.922791
31.621775
46.072525
59.429733
41.973747
113.132233
90.684998
36.784420
96.127869
57.979839
124.332115
96.220444
48.483421
70.304939
88.284576
186.027924
99.038506
60.483303
234.748856
74.667992
37.680126
33.297325
120.583977
111.040085
110.126503
85.866463
91.228050
70.050056
36.369984
80.871895
165.460251
48.943527
119.441833
69.249329
148.620132
121.337082
39.822390
26.966108
50.124165
61.731880
37.118456
162.027390
25.696990
47.036392
96.715446
70.286873
94.111282
97.383141
62.531559
37.550282
53.529690
51.413700
103.543182
86.255661
23.375007
39.592075
66.840935
64.877525
91.084076
48.929382
50.872715
53.346275
149.820206
58.756031
91.085899
35.063654
94.543274
87.998192
68.942509
88.148712
59.199413
101.450287
36.898399
118.099228
67.374119
50.696907
41.917988
23.611242
44.063610
15.281853
82.225624
25.108603
66.163471
111.623138
123.035507
124.346458
31.193176
145.865875
86.156151
60.212265
100.971146
106.275002
189.303406
160.716095
40.887873
59.594040
39.014046
73.957325
46.993538
51.913174
70.951904
43.845798
35.313326
62.911831
199.617889
107.498322
141.087021
99.748726
94.639793
131.563972
121.444908
53.740513
59.538044
95.694199
156.475311
55.590374
107.015244
104.232864
100.713158
104.459427
38.080437
232.765518
82.474472
43.392719
68.602058
82.481636
28.486740
176.195374
134.506485
191.534775
134.230247
158.643524
59.711353
51.370098
28.788124
181.744080
59.510208
132.203911
74.017715
72.559185
82.941261
62.607136
101.416313
55.860355
56.145153
174.689651
54.127029
79.095612
55.481915
36.101452
77.555687
70.176254
53.081131
37.033995
165.577850
91.215523
59.593277
171.272949
53.582821
138.925049
52.725441
55.430191
46.175640
60.818333
33.423260
24.880477
60.697346
90.380554
209.272736
189.753616
235.058609
244.152405
202.661697
172.207123
161.107376
70.650047
343.118286
62.784817
52.282711
41.514761
323.693207
89.597015
71.334515
72.608315
56.343552
88.162796
42.574600
122.433647
51.706314
87.547935
42.295197
34.628504
102.423599
278.134125
171.166214
415.413605
276.395233
192.125641
93.942802
67.805859
134.624657
151.984940
198.371887
235.268341
77.605103
173.073868
197.883133
129.641266
46.088425
136.147903
230.895432
213.725006
93.337570
58.342110
34.360304
84.504616
39.248533
52.551914
139.443497
61.481342
15.987948
23.988770
75.724480
58.681713
73.367065
34.129004
66.093601
53.735039
86.111916
127.636528
64.608044
86.361519
126.244209
64.053135
28.929827
69.066616
43.339157
79.737190
306.961853
72.599167
45.585789
73.896297
42.359665
112.172913
166.569687
113.723434
51.234364
28.819664
71.613884
42.515285
71.492191
38.002533
59.083786
135.324608
196.972900
66.216454
66.074348
33.989380
50.459835
96.576134
185.349426
104.208511
45.951370
63.650383
35.426706
93.234619
46.189602
35.464684
41.725870
78.984627
53.656162
41.836378
97.713417
151.541687
65.822643
85.727440
158.568695
103.526909
43.934105
34.443567
94.140320
69.445610
73.946953
176.493546
61.460884
86.910316
80.624084
98.640091
49.218964
125.730392
148.942413
82.150078
50.157265
72.093304
56.543564
17.349368
24.870189
81.304985
247.431656
69.976963
87.928108
84.851875
166.654037
64.020660
54.244045
120.945297
129.890388
74.858940
123.886696
74.894989
339.191589
46.837147
197.880386
115.584373
141.608398
201.503601
287.836151
48.196297
263.436844
122.514816
111.027946
87.941429
161.870087
97.164238
114.390045
143.383286
97.706528
84.707054
421.683746
84.415268
96.313202
68.864780
64.012592
50.798862
95.935677
54.451328
23.805211
75.474609
80.782303
165.095093
58.280914
66.016834
56.372898
85.121681
84.725212
102.484070
226.966110
194.474487
166.856430
87.972687
117.230972
69.564034
300.146759
261.171478
113.382278
127.811043
143.170654
152.350052
57.353065
220.578766
275.554230
183.836639
159.272766
252.461273
119.337189
105.096573
149.295074
383.359985
413.736267
295.673523
182.494705
154.108597
237.723022
93.165527
106.374786
115.620041
280.291412
212.932831
233.630341
169.545181
443.978699
171.077896
48.829113
164.376282
77.310120
47.389778
139.593460
47.907974
162.902359
113.646584
108.089134
24.432891
85.646729
74.003899
125.488480
92.291199
139.793228
202.450806
51.352081
45.129612
119.449684
26.852152
43.222832
44.450562
54.672123
128.361160
62.466797
64.356182
67.125092
56.896801
87.390747
41.148613
74.643196
64.529728
28.830236
82.443794
89.029839
147.856979
111.853752
112.211891
44.882839
47.882511
153.033463
118.305542
96.401031
114.174469
193.735336
93.361137
229.478638
268.559448
221.304199
116.052635
90.268021
148.821198
223.647797
163.797318
100.521500
199.123688
196.923126
110.220642
106.603325
152.926712
205.535126
108.090721
117.187462
161.471680
91.857376
70.210598
83.588081
109.418564
372.978394
389.359589
389.583954
138.584793
245.490738
120.413200
255.569305
320.895050
445.442871
224.221756
234.347244
148.237671
293.115479
396.776276
509.225861
284.922699
117.462379
156.078629
82.563042
89.001389
228.163223
109.121063
83.014114
165.488373
245.562637
163.426376
39.061028
74.548645
342.168732
259.978043
127.621971
86.821487
69.783699
91.008644
81.388664
39.261606
210.018646
28.813581
36.199455
73.093487
85.344612
60.106953
205.848236
143.401337
102.739693
102.159576
129.244751
114.944771
38.712370
56.422970
65.878647
137.063873
85.080627
58.601559
70.173740
46.085548
64.381535
44.073868
65.960209
68.337593
189.268463
103.199966
93.237114
38.575233
83.726639
24.063676
62.750504
84.386436
183.448456
40.822067
368.996399
144.658112
49.435402
46.615437
257.295319
31.831501
132.694534
85.593292
350.412292
120.785629

