# vtk DataFile Version 3.1
Tetrahedral Mesh Visualization
ASCII
DATASET UNSTRUCTURED_GRID

POINTS 277 FLOAT
0.000000 1.378113 1.754166
0.000000 0.000000 0.000000
2.000081 0.002392 -0.011012
0.000000 1.666667 0.000000
2.420498 0.005938 1.721338
0.000000 0.000000 1.666667
1.692997 2.468912 -0.007860
2.996339 2.459090 2.314518
3.995732 5.003022 -0.019722
3.071087 5.003117 1.632766
5.203084 5.005739 1.582608
3.486121 3.181765 -0.015968
5.404470 3.312822 -0.028374
6.002422 5.002480 -0.031364
7.372841 3.335751 -0.037902
6.969819 5.003776 1.286823
9.247882 2.185970 1.978789
8.699557 5.008147 1.562804
9.362705 3.330640 -0.047208
10.668337 4.997664 1.602406
11.377228 3.333153 -0.039976
11.120278 1.872107 1.508790
10.692498 1.670589 -0.042296
12.708794 1.663229 -0.018069
13.391030 3.326432 -0.009925
12.990718 1.871764 1.471621
14.727601 1.658590 0.037229
14.054033 -0.005904 0.016083
15.488504 2.135285 1.747787
15.356764 -0.002370 1.708917
13.348993 -0.004000 1.652646
17.314711 -0.004081 1.752860
16.743464 1.664137 0.112831
18.073435 -0.008168 0.175950
16.071775 0.000512 0.083925
18.747297 1.662628 0.191362
19.037632 -0.001676 1.529504
20.074600 -0.011567 0.250188
16.705048 -0.008532 3.422997
18.980228 -0.013301 3.317173
17.684507 2.671379 3.104144
17.905224 -0.010794 5.167763
16.594063 1.651878 5.121677
15.910035 -0.018185 5.088415
14.659625 -0.018049 3.354928
15.745341 2.874548 3.427546
18.640295 1.685169 5.194602
17.223358 3.326338 5.140996
19.186310 3.381644 5.219178
19.286556 4.987684 3.544378
20.891102 3.681675 5.279209
21.285053 4.991171 3.614846
19.624556 2.484610 2.584125
20.682165 4.988616 1.923032
21.903437 2.505284 2.782231
22.679916 4.991377 1.988505
23.375011 3.388712 0.350874
23.970123 2.448447 2.669226
25.086332 3.674028 0.414930
25.084572 1.882506 0.416779
26.002035 2.493884 2.184234
27.350557 1.692818 0.506603
26.797802 3.386366 0.486360
29.289165 -0.007347 2.215209
28.087393 -0.009273 0.549949
29.394880 1.669436 0.599692
31.014467 -0.004356 1.989053
32.081509 -0.008765 0.706032
31.397440 1.657050 0.682016
30.083269 -0.000487 0.630807
33.362968 1.637762 0.765152
34.085087 -0.012363 0.786530
32.693596 -0.007228 2.345376
34.607304 -0.005694 2.494017
34.974308 2.401494 3.370274
36.512314 -0.004238 2.707606
35.086067 -0.003178 4.216997
36.769981 -0.002332 4.443602
38.171452 2.516780 5.950690
37.682766 2.159042 3.113863
38.279835 -0.005344 3.480982
38.075714 -0.014766 0.941483
37.881641 -0.001615 5.938686
35.876133 -0.001959 5.864469
36.437378 1.743303 5.891530
34.811562 1.335430 5.823665
34.730274 3.135880 5.821809
36.637604 3.475022 5.894623
33.881626 5.009616 5.777588
32.580284 3.306513 5.727510
33.225044 5.004746 4.096984
31.883934 5.004952 5.695390
35.105789 4.998479 4.226484
32.192047 2.598060 3.145521
34.611443 4.989329 2.500917
32.722992 3.313269 0.731477
33.159313 -0.000585 4.064477
30.944746 0.002556 3.782626
31.195127 1.663407 5.683660
33.126762 1.607160 5.752954
30.549562 3.331637 5.647800
28.543720 3.331782 5.565135
29.207880 1.668345 5.598362
30.004940 2.493438 3.101138
27.947577 2.483475 3.012847
26.550756 3.330452 5.477385
27.211718 1.661942 5.509938
24.686598 4.996877 2.062926
22.079000 4.987544 0.302062
21.413786 3.329042 0.285549
22.813471 1.698707 0.339150
20.084881 4.984515 0.232189
19.415886 3.323420 0.215878
18.681673 4.988051 1.850906
18.083057 4.990680 0.160074
17.411575 3.325335 0.137365
16.077663 4.977086 0.074865
16.684000 4.984971 1.769041
14.685375 4.991820 1.691971
13.676557 2.947083 3.266422
12.942680 1.322859 4.979246
12.646248 -0.003775 3.302028
13.931219 -0.005672 5.011842
11.240112 1.619166 4.958042
10.643551 0.005224 3.283874
11.955941 -0.007863 4.961079
9.976548 0.006754 4.960596
11.333923 0.004897 1.622811
9.313278 0.010889 1.620493
10.018667 0.009169 -0.043684
8.694638 1.668128 -0.049879
8.011467 5.004590 -0.040136
10.022651 4.991441 -0.049718
11.206410 2.648865 3.233018
9.247213 5.011910 3.249727
10.711582 3.324417 4.950196
11.297314 5.008532 3.270632
9.982323 5.022229 4.944641
11.961186 5.018049 4.956013
7.989666 5.013530 4.949449
8.726265 3.399858 4.950633
6.955051 5.013151 3.074437
5.352483 3.376469 4.983323
5.990538 5.013704 4.971394
7.019774 3.694304 4.967268
5.137218 2.379259 3.118803
4.615525 5.001185 3.271101
3.486333 3.193841 4.995461
3.996185 5.002995 4.987370
2.369293 5.003326 3.272748
4.838763 1.615662 -0.021518
4.902749 0.009182 1.851388
6.726951 1.667064 -0.030473
7.007429 2.576503 2.157020
8.643604 0.006544 3.291281
17.291725 4.986326 3.464531
15.301607 4.994768 3.382733
15.918436 4.997099 5.083702
14.644767 1.602568 5.038807
15.187254 3.302773 5.057068
12.034760 0.001006 -0.026477
15.399069 3.317531 0.054593
14.067085 4.989568 0.010141
12.679990 4.992649 1.636137
13.307100 4.994054 3.313638
7.242746 0.015343 1.652892
6.662799 0.009926 3.339957
4.908249 1.650663 4.981406
6.000551 0.003608 4.965305
4.908361 0.005713 3.638021
4.000428 0.002135 4.982105
7.039633 1.899414 4.960962
7.986261 0.006144 4.956924
9.256138 1.698492 4.957536
20.898552 1.894368 5.283896
22.601812 3.394496 5.329084
23.890608 5.000349 5.364470
24.558289 3.344408 5.396113
23.286007 4.994332 3.674001
27.283775 4.994300 3.839919
26.683947 4.992836 2.148839
25.287981 4.998072 3.754597
35.246567 1.592407 0.836680
36.920040 1.443872 0.896620
39.927174 3.242545 4.633643
39.970448 1.623959 3.600800
38.283447 4.997701 3.485717
40.001019 3.246147 2.910225
39.939114 5.001537 4.343691
37.881302 4.999964 5.942691
39.871292 5.005919 6.011630
39.877380 3.328928 6.010491
39.877388 1.666530 6.003987
39.942566 -0.003250 4.335927
40.007698 -0.008397 2.670542
40.070683 -0.008676 1.002525
40.073467 1.656873 1.005333
40.070847 3.330502 1.014022
38.385223 2.459727 0.952446
38.078686 4.996243 0.947339
40.010128 4.998989 2.679971
36.778946 4.996519 4.445190
36.517822 4.998486 2.711563
36.592762 3.170926 0.889081
36.082130 4.990923 0.869800
34.680534 3.285545 0.809832
34.087070 4.984828 0.784720
30.742098 3.323767 0.652148
30.093037 4.992666 0.622051
32.093159 4.991966 0.705271
30.671255 4.989532 2.313501
28.750250 3.341888 0.571857
26.676697 -0.006994 3.875533
27.280550 -0.005254 2.201405
25.207874 1.674869 5.431063
23.898241 0.005686 5.388464
25.889446 -0.004534 5.462556
24.948605 -0.000678 4.101984
23.164160 1.705150 5.348835
23.239101 0.002423 3.742999
21.230433 0.001422 3.606539
21.907593 0.009925 5.319729
19.906260 -0.003314 5.246179
17.905268 4.993866 5.156984
19.894186 4.998001 5.236231
22.752174 0.000224 2.032442
25.010792 -0.004575 2.309807
24.078007 -0.001634 0.392908
26.084877 -0.003087 0.462355
26.094013 4.990701 0.455238
25.653448 2.231950 3.927723
28.680212 4.996040 2.236676
28.093485 4.997032 0.542731
25.890224 4.994752 5.451273
12.048635 4.993716 -0.030566
12.948127 3.116866 4.981424
13.938651 5.014030 5.006011
21.896139 5.003076 5.297984
28.686300 -0.005883 3.887788
29.277706 4.992618 3.928915
29.883333 5.000469 5.620630
31.263229 4.996928 4.009127
31.885363 0.005391 5.705960
33.880592 0.000465 5.783019
35.882839 4.994526 5.867343
32.654667 4.990014 2.397129
20.760900 1.659143 0.268469
20.748493 -0.008087 1.889019
24.086340 4.996397 0.377999
27.885429 5.004601 5.531716
40.078484 4.996026 1.013474
3.183027 1.469281 4.989877
0.000000 3.103853 1.750106
0.000000 5.000000 1.666667
0.000000 3.333333 0.000000
1.999520 5.002115 -0.011224
0.000000 5.000000 0.000000
0.000000 5.000000 3.333333
0.000000 0.000000 3.333333
1.699575 2.473155 4.995649
3.035762 0.003480 3.376620
2.001144 0.002592 4.992134
0.000000 2.403264 3.370902
0.000000 1.666667 5.000000
0.000000 3.333333 5.000000
0.000000 0.000000 5.000000
27.886749 -0.000022 5.548564
29.885141 0.009565 5.631933
36.083569 -0.017568 0.871742
39.888683 0.004972 6.000729
8.004538 0.008904 -0.043489
1.998140 5.003253 4.994506
3.162082 1.459211 -0.016218
3.999722 0.005709 -0.023115
22.079535 0.000482 0.316235
0.000000 5.000000 5.000000
6.001489 0.016059 -0.031136

CELLS 734 3670
4 0 1 2 3
4 0 4 2 5
4 0 3 2 6
4 4 6 0 2
4 4 6 7 0
4 8 9 10 11
4 12 13 14 15
4 16 17 14 18
4 19 20 18 21
4 20 22 21 23
4 24 25 26 23
4 25 27 26 23
4 26 28 29 30
4 28 29 31 32
4 33 34 32 31
4 31 33 35 32
4 31 33 36 35
4 33 37 36 35
4 38 39 40 31
4 41 42 43 38
4 44 42 45 38
4 44 42 38 43
4 46 38 42 41
4 46 47 40 48
4 49 50 51 52
4 53 54 51 55
4 56 54 55 57
4 56 58 59 57
4 60 59 61 62
4 63 61 64 65
4 66 67 68 69
4 67 70 71 72
4 73 74 75 76
4 74 77 75 76
4 77 78 79 80
4 79 81 75 80
4 77 78 80 82
4 77 83 76 84
4 83 85 76 84
4 85 86 74 84
4 74 86 87 84
4 88 89 86 90
4 91 89 88 90
4 86 88 90 92
4 90 86 92 74
4 86 89 74 90
4 93 94 95 74
4 70 74 72 93
4 70 73 71 72
4 74 96 73 72
4 66 97 93 72
4 96 97 72 93
4 96 98 97 93
4 85 96 74 99
4 96 98 93 99
4 98 89 100 93
4 101 102 100 103
4 104 105 101 106
4 107 58 57 60
4 58 107 57 56
4 53 108 109 55
4 56 110 109 54
4 53 111 109 108
4 112 53 109 52
4 111 112 113 53
4 112 111 113 114
4 115 116 114 117
4 40 28 115 117
4 45 117 118 28
4 119 28 25 44
4 120 44 121 122
4 123 121 124 125
4 125 123 126 124
4 127 128 21 124
4 16 129 128 21
4 16 18 14 130
4 16 17 18 19
4 131 17 132 18
4 16 19 18 21
4 133 16 19 134
4 135 134 133 136
4 135 137 136 138
4 137 134 139 140
4 141 142 143 144
4 145 146 147 7
4 142 148 147 146
4 7 146 147 149
4 10 7 9 146
4 145 150 7 151
4 152 151 150 153
4 16 128 154 124
4 124 21 121 133
4 25 28 30 44
4 28 38 45 40
4 45 47 40 42
4 155 45 156 47
4 157 156 47 155
4 155 45 40 117
4 45 42 158 159
4 44 42 43 158
4 119 45 158 159
4 120 44 158 119
4 25 127 21 121
4 25 27 160 30
4 127 25 160 30
4 25 127 121 30
4 44 25 121 30
4 28 30 44 29
4 119 28 44 45
4 119 28 118 25
4 28 24 26 161
4 26 32 29 28
4 28 31 29 38
4 46 38 41 39
4 46 38 39 40
4 28 117 40 45
4 118 28 117 161
4 162 24 118 161
4 118 119 163 164
4 136 119 164 163
4 25 133 21 163
4 128 16 21 124
4 165 166 153 154
4 166 167 168 169
4 167 168 169 170
4 171 168 172 166
4 124 173 126 154
4 123 121 133 124
4 120 125 122 121
4 122 158 44 43
4 47 46 40 42
4 52 50 174 48
4 175 50 174 54
4 176 175 177 178
4 179 60 180 181
4 64 69 63 65
4 68 72 67 66
4 70 73 182 71
4 74 79 183 75
4 184 78 185 79
4 79 184 186 187
4 186 184 188 187
4 184 189 190 191
4 184 78 79 186
4 78 189 184 191
4 189 184 190 188
4 184 78 191 192
4 184 78 192 185
4 192 78 80 185
4 193 80 194 185
4 195 81 196 194
4 81 79 196 194
4 197 187 196 198
4 187 79 185 196
4 79 184 187 185
4 197 199 187 198
4 199 197 187 200
4 199 200 187 186
4 78 201 79 186
4 189 201 87 78
4 202 201 79 74
4 201 74 92 87
4 201 202 92 74
4 201 202 79 186
4 202 203 74 79
4 202 198 203 79
4 204 202 199 203
4 202 203 205 74
4 202 204 205 203
4 182 203 74 205
4 74 203 183 79
4 79 203 183 198
4 79 81 198 183
4 81 79 198 196
4 187 79 196 198
4 202 198 79 186
4 202 204 94 205
4 94 95 205 206
4 207 208 209 210
4 208 207 211 210
4 104 103 211 65
4 104 60 212 213
4 214 215 216 217
4 218 219 220 221
4 222 174 220 221
4 46 39 222 174
4 52 46 40 48
4 40 49 52 48
4 53 49 52 113
4 40 49 155 113
4 155 45 47 40
4 157 47 223 155
4 49 223 224 48
4 52 50 51 54
4 175 54 57 178
4 218 175 54 57
4 225 219 54 57
4 218 175 57 177
4 57 217 219 218
4 219 225 226 57
4 225 227 226 57
4 59 110 57 227
4 59 60 61 228
4 61 60 213 228
4 64 61 213 228
4 63 61 213 64
4 61 104 211 65
4 180 60 104 62
4 58 229 62 180
4 58 60 180 62
4 60 61 104 62
4 60 226 230 212
4 226 60 213 212
4 60 104 212 230
4 179 60 230 104
4 104 211 231 62
4 180 229 62 232
4 180 232 62 231
4 179 60 104 180
4 233 181 105 179
4 181 105 179 230
4 105 214 106 230
4 105 214 230 177
4 215 214 218 217
4 215 217 218 219
4 218 215 219 221
4 218 175 174 54
4 39 52 220 174
4 39 46 52 174
4 115 52 112 35
4 28 115 117 161
4 162 118 116 161
4 24 162 118 163
4 20 19 234 163
4 25 133 163 119
4 120 119 158 235
4 236 119 235 159
4 235 119 158 159
4 119 235 133 136
4 138 235 236 164
4 45 47 42 159
4 46 38 40 42
4 49 50 52 48
4 237 175 176 178
4 181 233 177 176
4 180 179 231 104
4 207 103 65 211
4 207 103 68 65
4 65 66 103 68
4 103 66 97 93
4 66 103 97 63
4 213 104 63 238
4 238 97 103 63
4 104 102 103 238
4 104 106 212 230
4 214 212 106 230
4 214 212 216 106
4 214 212 217 216
4 214 212 230 217
4 226 217 230 212
4 226 60 230 57
4 181 60 57 230
4 179 105 104 230
4 179 105 101 104
4 104 239 103 101
4 239 101 240 100
4 91 241 240 100
4 241 239 240 100
4 239 241 103 100
4 103 210 93 241
4 103 207 93 210
4 210 103 231 239
4 103 239 104 231
4 103 104 63 65
4 65 66 63 103
4 65 66 68 69
4 68 72 66 93
4 96 98 242 97
4 85 96 99 243
4 85 86 99 74
4 86 89 99 74
4 88 86 244 92
4 74 86 92 87
4 201 244 87 92
4 244 86 87 92
4 90 74 92 94
4 94 95 206 245
4 95 209 206 245
4 245 207 95 209
4 208 232 231 211
4 180 104 231 62
4 181 60 107 57
4 54 175 51 178
4 50 52 174 54
4 246 36 52 247
4 246 36 37 35
4 52 31 36 35
4 31 39 52 36
4 39 46 222 41
4 39 222 174 220
4 174 218 220 221
4 218 219 54 220
4 225 219 220 54
4 56 110 54 57
4 110 56 59 57
4 60 59 226 228
4 60 226 213 228
4 57 217 230 226
4 214 217 230 218
4 218 57 230 177
4 181 105 230 177
4 179 60 181 230
4 58 107 180 60
4 229 107 58 248
4 229 107 180 58
4 60 58 59 62
4 58 107 56 248
4 108 56 109 55
4 108 56 55 248
4 107 56 55 57
4 107 181 57 178
4 57 181 177 178
4 181 176 177 178
4 233 181 177 105
4 249 239 101 240
4 91 89 241 100
4 89 91 241 90
4 210 245 93 241
4 245 241 90 93
4 93 94 90 245
4 74 202 92 94
4 205 204 94 206
4 202 198 199 203
4 202 198 186 199
4 199 197 200 250
4 199 186 187 198
4 200 186 188 187
4 184 189 186 188
4 201 189 87 244
4 189 201 78 186
4 201 78 79 87
4 189 78 184 186
4 186 79 187 198
4 74 201 79 87
4 74 79 84 87
4 79 78 84 87
4 77 78 84 79
4 74 77 84 79
4 74 85 84 76
4 83 243 76 85
4 85 96 243 76
4 73 96 74 76
4 96 93 74 99
4 89 93 99 74
4 93 94 74 90
4 93 94 245 95
4 207 95 68 93
4 95 70 68 93
4 95 70 74 205
4 74 70 182 205
4 94 95 74 205
4 241 89 90 93
4 104 179 231 239
4 181 60 180 107
4 107 57 55 178
4 57 54 55 178
4 53 49 51 52
4 40 49 113 52
4 155 47 223 48
4 45 47 159 156
4 119 156 45 159
4 120 44 119 121
4 16 173 124 154
4 166 167 169 145
4 145 7 147 251
4 9 7 252 149
4 253 254 252 255
4 256 253 255 254
4 6 9 252 255
4 253 257 149 252
4 7 258 259 260
4 260 261 251 170
4 169 260 251 170
4 169 251 167 170
4 166 167 145 171
4 16 22 18 130
4 25 24 20 23
4 24 25 118 28
4 119 156 118 45
4 119 28 45 118
4 119 45 44 158
4 44 38 28 29
4 25 28 26 30
4 25 24 26 28
4 24 20 234 163
4 162 24 234 163
4 163 119 118 25
4 235 135 133 136
4 135 134 140 133
4 145 141 153 144
4 145 260 169 151
4 0 258 4 5
4 259 258 262 263
4 264 259 262 263
4 258 7 262 0
4 260 258 259 261
4 258 261 263 259
4 261 258 263 265
4 261 260 251 259
4 167 251 169 145
4 145 260 251 169
4 166 167 171 168
4 16 171 153 140
4 137 135 136 134
4 138 135 235 136
4 235 138 136 164
4 236 119 156 164
4 157 156 159 47
4 155 47 48 40
4 40 49 48 155
4 46 52 174 48
4 247 225 220 54
4 110 225 57 227
4 60 59 57 226
4 104 61 211 62
4 232 211 62 231
4 103 104 211 231
4 239 210 103 241
4 241 93 103 100
4 68 72 93 70
4 103 207 68 93
4 207 103 211 210
4 210 208 231 211
4 103 210 231 211
4 245 207 210 93
4 245 207 209 210
4 245 207 93 95
4 70 95 74 93
4 70 73 74 182
4 182 203 183 74
4 202 74 205 94
4 93 89 90 74
4 89 241 100 93
4 93 98 103 100
4 101 104 102 103
4 104 101 102 106
4 106 238 104 212
4 266 216 212 106
4 106 238 212 266
4 106 238 102 104
4 267 266 238 102
4 97 102 267 238
4 106 238 266 102
4 97 102 238 103
4 97 102 103 98
4 97 102 98 267
4 97 98 242 267
4 96 98 99 242
4 89 98 99 93
4 239 101 100 103
4 104 179 239 101
4 179 249 239 101
4 105 179 101 249
4 233 105 249 179
4 177 181 57 230
4 175 57 177 178
4 175 237 51 178
4 55 54 51 178
4 112 111 109 53
4 112 53 52 113
4 117 115 113 114
4 116 118 117 161
4 115 116 117 161
4 28 115 161 32
4 29 32 26 34
4 26 30 29 27
4 34 26 29 27
4 29 34 31 32
4 31 115 32 35
4 31 115 28 32
4 246 112 52 35
4 246 247 52 54
4 247 110 225 54
4 59 227 57 226
4 213 104 238 212
4 104 103 63 238
4 97 98 103 93
4 70 73 72 74
4 71 182 268 73
4 182 75 268 73
4 182 75 183 268
4 183 81 268 75
4 182 75 74 183
4 79 81 183 75
4 79 81 80 194
4 78 192 80 82
4 192 193 80 82
4 269 193 192 82
4 193 192 80 185
4 80 79 194 185
4 77 74 75 79
4 85 96 76 74
4 96 243 242 99
4 98 102 103 100
4 104 105 106 230
4 214 218 230 177
4 50 175 51 54
4 49 155 223 48
4 157 156 236 159
4 236 119 159 156
4 235 119 164 136
4 236 119 164 235
4 133 235 120 123
4 120 235 133 119
4 135 123 235 133
4 124 173 123 126
4 173 172 126 154
4 166 171 154 172
4 172 171 154 173
4 171 16 154 173
4 171 166 154 153
4 16 171 154 153
4 124 173 16 133
4 124 173 133 123
4 25 133 119 121
4 19 16 133 21
4 163 19 133 21
4 134 19 133 136
4 133 119 136 163
4 133 19 163 136
4 132 20 18 19
4 20 132 234 19
4 20 19 163 21
4 22 20 21 18
4 16 22 21 18
4 128 129 127 21
4 160 129 21 127
4 160 21 25 127
4 25 20 21 23
4 25 27 23 160
4 25 27 30 26
4 23 22 21 160
4 16 129 21 22
4 128 130 165 270
4 128 130 270 129
4 128 130 16 165
4 16 165 153 154
4 17 16 14 153
4 131 17 18 14
4 17 141 153 15
4 12 10 15 153
4 15 17 14 153
4 153 16 14 130
4 16 129 22 130
4 128 130 129 16
4 16 128 165 154
4 151 166 153 165
4 260 145 7 151
4 9 6 252 7
4 7 262 252 149
4 260 259 7 251
4 7 259 147 251
4 264 259 271 149
4 259 7 147 149
4 146 148 147 149
4 271 259 147 149
4 148 271 147 149
4 146 142 143 141
4 144 141 140 139
4 141 134 140 139
4 143 141 144 139
4 142 145 141 146
4 145 142 141 144
4 148 142 143 146
4 145 7 10 146
4 145 150 151 153
4 151 272 150 7
4 151 272 273 150
4 151 272 4 273
4 4 272 2 273
4 151 272 7 4
4 4 260 7 151
4 166 145 151 153
4 166 145 169 151
4 171 166 153 145
4 133 16 140 173
4 124 16 21 133
4 25 21 160 23
4 21 129 160 22
4 121 21 124 127
4 121 120 133 119
4 123 121 125 120
4 123 121 120 133
4 25 133 121 21
4 25 20 163 21
4 118 24 28 161
4 26 28 161 32
4 40 115 28 31
4 115 52 113 112
4 246 112 109 52
4 246 52 109 54
4 56 54 109 55
4 56 107 55 248
4 58 60 59 57
4 63 61 65 104
4 68 72 70 67
4 182 75 73 74
4 77 79 75 80
4 196 79 185 194
4 79 78 185 80
4 77 78 82 84
4 83 77 82 84
4 77 74 84 76
4 96 74 93 72
4 103 66 93 68
4 65 66 69 63
4 63 61 104 213
4 61 60 104 213
4 59 227 226 228
4 274 110 227 225
4 246 36 247 37
4 246 36 35 52
4 52 115 40 31
4 28 31 38 40
4 44 42 158 45
4 120 44 122 158
4 135 133 140 173
4 171 16 173 140
4 171 144 153 140
4 141 144 140 153
4 10 141 15 153
4 10 12 15 13
4 10 8 12 13
4 8 10 12 11
4 8 9 11 255
4 9 253 149 252
4 257 262 149 252
4 262 259 149 7
4 258 7 4 260
4 259 258 7 262
4 262 0 7 252
4 0 6 7 252
4 254 6 252 255
4 0 3 6 252
4 6 3 254 252
4 272 6 11 7
4 4 6 272 7
4 4 6 2 272
4 9 6 11 255
4 9 253 252 255
4 262 264 257 149
4 257 264 275 271
4 259 264 262 149
4 257 264 271 149
4 9 146 7 149
4 10 7 11 9
4 7 12 10 11
4 145 150 153 12
4 12 145 10 153
4 145 146 10 141
4 145 142 147 146
4 171 145 153 144
4 171 142 145 144
4 142 171 145 167
4 142 145 147 167
4 167 145 147 251
4 145 260 7 251
4 145 150 12 7
4 12 145 7 10
4 12 152 153 14
4 152 153 14 130
4 152 151 153 165
4 165 152 276 270
4 152 151 165 276
4 165 152 270 130
4 152 151 276 150
4 276 150 151 273
4 272 7 11 150
4 7 12 11 150
4 153 150 152 12
4 165 16 153 130
4 165 152 130 153
4 15 12 153 14
4 13 131 14 15
4 17 131 15 14
4 17 132 18 19
4 25 24 163 20
4 25 24 118 163
4 119 156 164 118
4 118 117 45 156
4 155 45 117 156
4 113 40 117 155
4 50 49 224 48
4 49 50 224 51
4 50 237 224 51
4 237 50 175 51
4 52 54 220 174
4 52 247 220 54
4 39 247 220 52
4 39 247 52 36
4 115 52 35 31
4 40 115 52 113
4 40 115 113 117
4 115 112 113 114
4 53 52 51 54
4 54 53 109 55
4 52 53 109 54
4 110 246 109 54
4 247 110 54 246
4 247 110 274 225
4 246 274 37 247
4 247 110 246 274
4 110 225 54 57
4 57 217 226 219
4 57 217 218 230
4 219 218 54 57
4 218 54 174 220
4 46 39 52 40
4 39 31 52 40
4 38 42 45 40
4 28 38 44 45
4 121 25 44 119
4 123 135 173 133
4 134 153 140 16
4 134 16 140 133
4 137 135 134 140
4 134 153 141 140
4 134 153 16 17
4 16 17 19 134
4 134 153 17 141
4 153 145 10 141
4 6 9 11 7
4 258 7 0 4
4 1 0 2 5

CELL_TYPES 734
10
10
10
10
10
10
10
10
10
10
10
10
10
10
10
10
10
10
10
10
10
10
10
10
10
10
10
10
10
10
10
10
10
10
10
10
10
10
10
10
10
10
10
10
10
10
10
10
10
10
10
10
10
10
10
10
10
10
10
10
10
10
10
10
10
10
10
10
10
10
10
10
10
10
10
10
10
10
10
10
10
10
10
10
10
10
10
10
10
10
10
10
10
10
10
10
10
10
10
10
10
10
10
10
10
10
10
10
10
10
10
10
10
10
10
10
10
10
10
10
10
10
10
10
10
10
10
10
10
10
10
10
10
10
10
10
10
10
10
10
10
10
10
10
10
10
10
10
10
10
10
10
10
10
10
10
10
10
10
10
10
10
10
10
10
10
10
10
10
10
10
10
10
10
10
10
10
10
10
10
10
10
10
10
10
10
10
10
10
10
10
10
10
10
10
10
10
10
10
10
10
10
10
10
10
10
10
10
10
10
10
10
10
10
10
10
10
10
10
10
10
10
10
10
10
10
10
10
10
10
10
10
10
10
10
10
10
10
10
10
10
10
10
10
10
10
10
10
10
10
10
10
10
10
10
10
10
10
10
10
10
10
10
10
10
10
10
10
10
10
10
10
10
10
10
10
10
10
10
10
10
10
10
10
10
10
10
10
10
10
10
10
10
10
10
10
10
10
10
10
10
10
10
10
10
10
10
10
10
10
10
10
10
10
10
10
10
10
10
10
10
10
10
10
10
10
10
10
10
10
10
10
10
10
10
10
10
10
10
10
10
10
10
10
10
10
10
10
10
10
10
10
10
10
10
10
10
10
10
10
10
10
10
10
10
10
10
10
10
10
10
10
10
10
10
10
10
10
10
10
10
10
10
10
10
10
10
10
10
10
10
10
10
10
10
10
10
10
10
10
10
10
10
10
10
10
10
10
10
10
10
10
10
10
10
10
10
10
10
10
10
10
10
10
10
10
10
10
10
10
10
10
10
10
10
10
10
10
10
10
10
10
10
10
10
10
10
10
10
10
10
10
10
10
10
10
10
10
10
10
10
10
10
10
10
10
10
10
10
10
10
10
10
10
10
10
10
10
10
10
10
10
10
10
10
10
10
10
10
10
10
10
10
10
10
10
10
10
10
10
10
10
10
10
10
10
10
10
10
10
10
10
10
10
10
10
10
10
10
10
10
10
10
10
10
10
10
10
10
10
10
10
10
10
10
10
10
10
10
10
10
10
10
10
10
10
10
10
10
10
10
10
10
10
10
10
10
10
10
10
10
10
10
10
10
10
10
10
10
10
10
10
10
10
10
10
10
10
10
10
10
10
10
10
10
10
10
10
10
10
10
10
10
10
10
10
10
10
10
10
10
10
10
10
10
10
10
10
10
10
10
10
10
10
10
10
10
10
10
10
10
10
10
10
10
10
10
10
10
10
10
10
10
10
10
10
10
10
10
10
10
10
10
10
10
10
10
10
10
10
10
10
10
10
10
10
10
10
10
10
10
10
10
10
10
10
10
10
10
10
10
10
10
10
10
10
10
10
10
10
10
10
10
10
10
10
10
10
10
10
10
10
10
10
10
10
10
10
10
10
10
10
10
10
10
10
10
10
10
10
10
10
10
10
10
10
10
10
10
10
10
10
10
10
10
10
10
10
10
10
10
10
10
10

CELL_DATA 734
SCALARS potentialEnergy FLOAT 1
LOOKUP_TABLE default
27.718445
30.782564
33.346998
45.957172
73.347755
91.290726
111.832825
328.916534
664.142822
327.777985
360.476837
364.871033
100.829994
167.695633
252.340210
92.052452
58.305069
48.324314
90.370300
58.753456
213.721634
115.852180
17.113578
90.109909
70.272747
70.750111
291.733124
29.958509
65.674721
69.745399
30.933197
70.060280
55.184155
35.285931
77.673119
49.753941
40.276485
20.502215
19.512396
23.170283
44.774681
37.235727
10.950662
38.165718
30.181196
36.173660
63.811668
154.174683
58.137962
63.879616
43.675083
38.031673
91.100197
26.216087
74.394669
48.410831
23.237558
57.077621
26.167372
31.815331
42.255367
114.839012
55.828823
45.234009
59.660542
66.540730
142.096100
272.227570
287.873871
246.516113
155.667007
109.591469
279.369110
100.032433
105.052368
258.783661
224.458191
162.269684
303.420746
206.305496
143.982559
263.544128
94.418007
85.815620
107.412987
96.097275
112.994781
65.516232
79.332092
73.234695
510.135925
552.792969
100.596489
215.681564
71.363209
129.930847
142.489166
149.842163
324.302429
303.457153
169.844345
416.607635
235.199387
288.767914
84.047272
94.355621
68.531723
116.296799
165.533478
237.645981
98.953606
279.852264
211.367477
86.644806
43.555267
237.646912
364.063568
110.483459
91.080818
129.554405
100.829674
336.994263
316.300629
38.162437
29.622303
168.749100
202.582199
361.059906
288.206512
289.210541
23.744916
142.784546
66.468983
50.404045
48.258106
67.585209
23.374984
62.470329
72.467426
78.882599
65.324543
67.421383
121.671059
88.474510
42.603897
85.872902
82.559875
69.328529
73.717987
40.877920
95.193970
96.678268
178.459412
121.327324
82.566872
71.070805
62.540066
42.721355
97.992043
29.030581
55.089642
51.188225
35.495777
28.957708
86.142647
55.101231
44.988945
99.280235
60.538673
44.440311
66.751099
34.150822
41.541933
162.061111
102.782448
50.832073
50.194256
31.536776
93.744598
44.751884
59.474297
46.456512
54.276905
35.671930
33.733540
77.989120
73.039154
75.974770
151.719315
46.860809
96.871246
125.634056
119.862755
86.995407
100.738762
75.769226
89.165558
48.377743
54.818268
63.726421
69.305832
81.238068
39.026922
42.276661
54.257366
54.053131
60.017292
27.279150
104.228035
156.678085
25.588802
24.449616
58.314926
64.082607
83.457443
75.055756
44.854717
22.510949
29.431944
22.754253
42.343884
46.702785
56.189121
32.615171
24.007890
87.920135
76.361908
73.144859
93.809448
54.405518
407.416840
109.536743
77.392632
139.402542
84.441093
231.417999
434.280212
459.220764
68.691273
386.899994
125.906464
183.231445
123.372032
69.391563
43.913368
47.963436
26.123098
56.990280
39.149824
100.525444
35.156397
68.795689
85.461029
151.985870
59.743797
74.109634
53.635422
52.565559
49.770409
56.070518
19.506793
46.334339
42.295807
120.426300
52.947876
27.534342
51.580463
29.027914
45.542061
21.164056
82.274933
46.226208
47.639511
92.975380
55.510456
24.508967
36.459852
46.392250
17.138014
38.453249
32.908730
58.470512
36.994665
28.752991
36.979206
72.716492
15.171514
85.404892
56.884945
30.866079
51.545376
29.095116
96.023033
76.525703
59.611744
41.063307
56.293526
102.366165
46.865753
44.600891
54.858810
83.448051
56.019440
103.775970
72.671188
39.181038
62.617016
47.805420
58.022160
45.001007
50.753384
50.249828
86.240295
99.297905
18.315398
51.874268
30.453337
52.095116
67.112434
84.416573
28.589268
34.591661
16.080683
52.815414
47.165421
65.979225
22.778370
25.285971
54.216759
32.831814
96.088737
47.504539
44.929531
49.551273
63.502193
45.241592
92.692116
83.463341
43.900322
40.531570
45.775234
56.787056
37.502172
57.567116
78.360817
70.891621
94.332184
95.878899
24.690458
29.444715
29.783216
45.095413
91.765167
55.033913
60.232803
21.476125
145.102112
40.402897
34.075171
51.630676
45.700306
46.384796
41.254160
33.962217
79.612389
84.252815
52.744015
43.790253
52.996765
157.193451
118.984375
131.278328
122.919930
77.701332
53.091354
59.208443
32.085968
28.594776
62.627472
18.374176
50.430313
18.211186
20.772877
18.064911
169.998306
120.968613
225.760132
209.926132
196.409637
196.112930
465.054443
358.808441
92.609245
85.962242
169.937195
231.833694
77.201111
488.486633
275.569794
147.114456
54.744205
28.318045
21.435579
17.874927
79.851845
25.733621
24.768968
28.160185
19.235515
35.059301
46.464283
70.205414
189.893921
171.054382
332.387299
148.260086
184.708725
143.240967
68.584686
45.382854
74.419739
46.381901
97.254608
32.898867
38.991035
34.059671
54.177284
34.690966
35.077980
51.371758
18.772386
87.230026
90.823746
43.415920
38.496597
32.447525
45.614784
31.591951
118.080780
81.275688
141.379288
45.314526
48.456146
22.620279
33.511763
48.227196
51.813957
38.873352
36.273876
46.608055
28.185966
28.514090
48.911205
47.242416
44.912792
34.125072
47.637741
37.548817
32.221235
45.072372
100.450500
51.648216
105.991936
38.631874
31.112289
78.806076
56.976341
82.207993
30.799385
32.198431
250.947052
126.698219
280.493256
224.076981
224.321823
184.990265
238.869720
291.680817
134.761086
155.083878
33.192633
21.086042
52.671848
112.015228
101.248665
48.064220
44.830231
104.863052
27.877787
64.298878
86.224915
108.292336
83.369926
40.253988
76.787727
62.273682
46.358982
81.256058
52.748669
110.802757
26.829491
97.762375
33.217934
22.174248
21.581435
48.256176
96.736305
62.030231
328.211945
350.757416
92.002693
165.684052
219.961472
92.672531
245.959167
332.325287
79.038498
162.152695
87.612885
179.378220
83.639717
117.157227
181.552048
461.540558
56.516064
311.966919
169.437012
299.714447
58.426872
228.935318
300.785797
398.435211
221.988770
428.598389
232.741592
118.211060
270.372894
85.742836
282.716583
339.622406
76.726524
341.494202
146.372681
47.467548
131.344170
147.067276
200.329056
228.666809
118.796013
211.781998
201.311966
201.252960
166.854492
128.762543
43.139988
170.011627
144.603745
82.944305
51.771835
71.616440
16.284459
23.496891
19.492073
27.123987
52.030319
13.784962
47.261143
127.898674
70.593906
69.662453
90.767227
191.542969
155.615738
73.772320
88.637138
118.826385
52.954842
31.132832
47.825840
41.337988
84.382599
64.997913
132.151459
97.299629
170.153397
160.338333
407.911224
96.403900
194.553085
111.897240
129.284889
308.350677
480.024017
264.796356
188.662308
333.010468
225.201691
279.460388
55.695080
68.017677
61.931332
113.948906
67.884808
26.059616
95.445168
27.434616
93.557281
31.107216
74.674522
154.076614
35.045525
48.683655
20.682502
121.304482
46.179543
28.307030
68.349194
41.455542
98.166191
18.884554
39.605480
73.883415
137.909409
228.195862
601.460815
178.086807
178.887115
174.349319
146.054840
200.350632
168.130630
89.198967
104.194550
60.459938
42.860474
44.332413
21.082901
30.527012
65.767376
23.513520
60.737103
43.760719
31.640594
20.678032
20.292624
43.820595
56.698593
33.928537
58.594105
58.698296
21.302350
38.699749
18.323608
18.439442
137.848434
84.371880
76.672897
136.272156
125.680489
203.951080
156.232788
145.439957
96.118591
109.600708
80.377205
34.803316
41.227203
80.692451
122.888802
157.429276
183.722992
149.935791
92.724518
94.997459
99.659462
43.966267
73.919342
54.629524
53.732784
75.489609
262.457413
260.446976
263.041275
82.331070
124.996284
225.344498
415.792664
62.526932
78.452301
144.322495
152.382431
146.566544
32.813248
18.491630
39.815014
95.024353
98.026871
68.389492
107.887115
121.663826
71.585091
139.312042
166.354614
114.746712
44.441784
85.177086
65.842491
94.042747
56.570992
66.007301
67.131260
45.649914
97.133583
50.303329
57.352665
104.713341
79.747330
22.489958
133.423592
136.445457
349.385956
149.226669
218.915833
225.710495
166.280731
237.176514
200.702225
246.670364
186.906891
209.321472
104.865456
48.567467
60.621609
23.920016

