# vtk DataFile Version 3.1
Tetrahedral Mesh Visualization
ASCII
DATASET UNSTRUCTURED_GRID

POINTS 277 FLOAT
0.000000 1.378113 1.754166
0.000000 0.000000 0.000000
2.000962 0.019146 0.003396
0.000000 1.666667 0.000000
2.424481 0.011155 1.734279
0.000000 0.000000 1.666667
1.694828 2.484426 -0.000049
2.999523 2.467367 2.321711
3.999003 5.022210 -0.003218
3.073923 5.017462 1.645047
5.206167 5.023180 1.608084
3.489987 3.201283 -0.000429
5.411049 3.335527 0.001563
6.004789 5.030317 0.001458
7.376147 3.386320 0.019967
6.968417 5.040998 1.337512
9.255453 2.243535 2.057662
8.693599 5.058002 1.652038
9.360950 3.409839 0.035237
10.662534 5.065909 1.715747
11.360329 3.411000 0.051605
11.117538 1.937386 1.597188
10.689985 1.743440 0.038643
12.692245 1.739602 0.059647
13.365250 3.397981 0.072094
12.981775 1.937899 1.554159
14.698433 1.725674 0.085201
14.025206 0.062919 0.064499
15.475830 2.183844 1.792757
15.338200 0.043462 1.743212
13.338161 0.058237 1.717336
17.301394 0.034278 1.746797
16.704584 1.715369 0.132401
18.033258 0.039480 0.155500
16.033476 0.052382 0.105802
18.697805 1.710111 0.176995
19.019651 0.036341 1.496241
20.031261 0.049306 0.190819
16.714918 0.029247 3.420416
18.989334 0.030438 3.289387
17.695974 2.716216 3.106230
17.956057 0.028393 5.151243
16.643673 1.693459 5.123099
15.955831 0.030631 5.101033
14.665297 0.043405 3.403505
15.761164 2.928744 3.464921
18.695023 1.722554 5.178068
17.280787 3.367271 5.150038
19.252993 3.414063 5.189052
19.319025 5.031940 3.538888
20.970657 3.705148 5.205789
21.321384 5.027947 3.548858
19.626869 2.521909 2.559567
20.661345 5.032508 1.882056
21.916990 2.537970 2.695864
22.664949 5.036427 1.905731
23.312874 3.447657 0.236095
23.975489 2.481838 2.535332
25.016685 3.734026 0.248086
25.013605 1.940827 0.236419
25.988071 2.544412 1.977011
27.274031 1.747079 0.254416
26.721205 3.441651 0.254744
29.270102 0.044552 1.879738
28.010241 0.045651 0.255718
29.317835 1.715105 0.272247
30.985931 0.040771 1.590297
31.998238 0.035747 0.268948
31.310881 1.707891 0.280203
30.007385 0.045453 0.263628
33.267857 1.691514 0.287333
33.990433 0.041585 0.263794
32.676846 0.024890 1.884971
34.592064 0.027456 1.948427
34.984837 2.428965 2.823336
36.506992 0.039700 2.067091
35.145889 0.019572 3.640224
36.837124 0.027491 3.790288
38.299599 2.542687 5.271364
37.681160 2.209624 2.459647
38.304016 0.046415 2.761543
37.997547 0.074935 0.231002
38.020088 0.021465 5.230155
36.008995 0.002036 5.247746
36.562496 1.754583 5.275885
34.933174 1.332820 5.268682
34.847107 3.129120 5.290682
36.756016 3.489295 5.292681
34.000427 4.993522 5.312912
32.688499 3.300603 5.302050
33.266510 5.015892 3.660984
31.998909 5.001691 5.317598
35.147705 5.017829 3.700061
32.200943 2.629763 2.720082
34.586002 5.029076 2.000079
32.633659 3.371391 0.291104
33.204567 0.016453 3.581603
30.977203 0.028594 3.379189
31.309856 1.661909 5.282293
33.243664 1.603310 5.283596
30.659838 3.334078 5.300725
28.647371 3.355877 5.287172
29.316984 1.687932 5.280137
30.014656 2.537734 2.764387
27.956606 2.535794 2.750504
26.640631 3.369481 5.265491
27.311670 1.705466 5.262948
24.664639 5.038463 1.921379
22.022964 5.050437 0.234241
21.357113 3.391081 0.221554
22.759216 1.753705 0.222213
20.022289 5.045982 0.207432
19.360445 3.379473 0.196831
18.669243 5.040497 1.863527
18.033016 5.049083 0.182302
17.367397 3.380483 0.162642
16.038538 5.052710 0.142081
16.671452 5.042986 1.821091
14.669888 5.044815 1.770467
13.682440 3.012056 3.351227
12.967027 1.369777 5.061800
12.655633 0.057278 3.376582
13.961914 0.040889 5.068068
11.254842 1.665933 5.049045
10.652085 0.060659 3.364227
11.976328 0.046267 5.041433
9.986128 0.045222 5.028565
11.331788 0.071305 1.699542
9.316215 0.066084 1.691034
10.018888 0.073202 0.025208
8.702006 1.735470 0.022626
8.014317 5.060160 0.030403
10.021963 5.076055 0.055218
11.212214 2.701446 3.334559
9.238904 5.050756 3.348472
10.713635 3.360641 5.049722
11.297812 5.053715 3.390955
9.970107 5.044532 5.052888
11.972229 5.048862 5.069865
7.964066 5.037541 5.021986
8.714148 3.429214 5.035382
6.949213 5.038677 3.126235
5.343412 3.382745 5.011603
5.974967 5.022797 5.012827
7.008028 3.709155 5.018971
5.139655 2.390732 3.144117
4.614591 5.014896 3.288887
3.482962 3.198367 5.002036
3.990510 5.011347 5.000675
2.369031 5.010609 3.277709
4.848845 1.636056 0.000647
4.911395 0.025324 1.878523
6.738632 1.705110 0.016153
7.011275 2.605070 2.207820
8.653172 0.052759 3.358552
17.319881 5.036688 3.500240
15.314941 5.046902 3.448497
15.961028 5.042248 5.124787
14.678078 1.650578 5.086801
15.233672 3.342671 5.105551
12.020595 0.074779 0.040829
15.368505 3.385379 0.112070
14.038366 5.055393 0.090670
12.667345 5.055064 1.742110
13.312136 5.051521 3.418740
7.251463 0.047736 1.705697
6.671218 0.029652 3.389062
4.906872 1.655786 5.006217
6.001084 0.015105 5.007333
4.913068 0.018700 3.663771
3.999656 0.010588 5.000845
7.035832 1.914888 5.014800
7.995655 0.038828 5.020103
9.257840 1.737674 5.034516
20.970722 1.916812 5.210976
22.684099 3.413903 5.230009
23.979668 5.030810 5.244401
24.642826 3.372301 5.244656
23.323214 5.028687 3.576541
27.322226 5.036832 3.612493
26.667751 5.040173 1.934661
25.323675 5.032077 3.590217
35.149078 1.648836 0.275775
36.827778 1.510128 0.265798
39.993069 3.295498 3.882004
39.993015 1.688722 2.825873
38.289665 5.047302 2.819108
39.983692 3.317543 2.156520
39.980415 5.059779 3.613453
37.997536 5.019367 5.290988
40.000999 5.023609 5.274645
40.007034 3.360602 5.259065
40.012932 1.695077 5.215667
40.005581 0.041263 3.527351
39.996387 0.068286 1.869686
39.998352 0.090883 0.207173
39.991627 1.756340 0.232517
39.981834 3.424036 0.263366
38.291946 2.537238 0.264364
37.970978 5.066829 0.281605
39.973515 5.069585 1.942800
36.826611 5.023104 3.848237
36.497944 5.040090 2.122994
36.501854 3.232068 0.283561
35.982979 5.049635 0.298826
34.590672 3.346131 0.288121
33.989880 5.042117 0.303988
30.656982 3.377547 0.292198
30.012844 5.043346 0.302354
31.999426 5.045879 0.307156
30.657063 5.035955 1.980789
28.671926 3.385420 0.274497
26.720339 0.041887 3.629786
27.269312 0.042951 1.938532
25.301565 1.705853 5.235705
23.986115 0.027140 5.221739
25.984827 0.033469 5.234591
24.993155 0.036615 3.906512
23.242458 1.723619 5.229833
23.269751 0.029398 3.606625
21.258480 0.032990 3.521632
21.978291 0.029315 5.216519
19.969072 0.034233 5.192294
17.965988 5.025360 5.179365
19.976120 5.026424 5.204664
22.745529 0.041250 1.903990
25.007374 0.038613 2.116860
24.018860 0.048295 0.218815
26.014305 0.045012 0.237406
26.018162 5.054661 0.265995
25.697617 2.274426 3.732363
28.666677 5.033477 1.960470
28.020716 5.047830 0.287549
25.977674 5.034116 5.262637
12.032306 5.075021 0.076922
12.972577 3.159962 5.076191
13.968843 5.047018 5.097367
21.975719 5.022189 5.221293
28.725010 0.037132 3.575097
29.319193 5.028866 3.640630
29.990088 5.005978 5.311082
31.308964 5.018262 3.655784
31.993719 0.004222 5.265824
34.003250 -0.002279 5.259487
35.994339 5.008137 5.302745
32.632324 5.032842 1.979691
20.706818 1.723113 0.212839
20.735905 0.038772 1.820497
24.022686 5.060230 0.252192
27.979851 5.022547 5.287850
39.978172 5.082365 0.272980
3.182042 1.472427 4.998183
0.000000 3.103853 1.750106
0.000000 5.000000 1.666667
0.000000 3.333333 0.000000
2.000279 5.017087 -0.001829
0.000000 5.000000 0.000000
0.000000 5.000000 3.333333
0.000000 0.000000 3.333333
1.697981 2.474828 4.998189
3.037492 0.010488 3.387314
2.001349 0.004695 4.998880
0.000000 2.403264 3.370902
0.000000 1.666667 5.000000
0.000000 3.333333 5.000000
0.000000 0.000000 5.000000
27.985180 0.036351 5.259377
29.990757 0.022384 5.268649
35.994133 0.051320 0.249925
40.024014 0.031773 5.191827
8.020122 0.068312 0.011270
1.998406 5.007761 4.999031
3.167171 1.474676 0.000457
4.009531 0.025580 0.002588
22.022715 0.052835 0.212423
0.000000 5.000000 5.000000
6.020077 0.048825 0.008650

CELLS 734 3670
4 0 1 2 3
4 0 4 2 5
4 0 3 2 6
4 4 6 0 2
4 4 6 7 0
4 8 9 10 11
4 12 13 14 15
4 16 17 14 18
4 19 20 18 21
4 20 22 21 23
4 24 25 26 23
4 25 27 26 23
4 26 28 29 30
4 28 29 31 32
4 33 34 32 31
4 31 33 35 32
4 31 33 36 35
4 33 37 36 35
4 38 39 40 31
4 41 42 43 38
4 44 42 45 38
4 44 42 38 43
4 46 38 42 41
4 46 47 40 48
4 49 50 51 52
4 53 54 51 55
4 56 54 55 57
4 56 58 59 57
4 60 59 61 62
4 63 61 64 65
4 66 67 68 69
4 67 70 71 72
4 73 74 75 76
4 74 77 75 76
4 77 78 79 80
4 79 81 75 80
4 77 78 80 82
4 77 83 76 84
4 83 85 76 84
4 85 86 74 84
4 74 86 87 84
4 88 89 86 90
4 91 89 88 90
4 86 88 90 92
4 90 86 92 74
4 86 89 74 90
4 93 94 95 74
4 70 74 72 93
4 70 73 71 72
4 74 96 73 72
4 66 97 93 72
4 96 97 72 93
4 96 98 97 93
4 85 96 74 99
4 96 98 93 99
4 98 89 100 93
4 101 102 100 103
4 104 105 101 106
4 107 58 57 60
4 58 107 57 56
4 53 108 109 55
4 56 110 109 54
4 53 111 109 108
4 112 53 109 52
4 111 112 113 53
4 112 111 113 114
4 115 116 114 117
4 40 28 115 117
4 45 117 118 28
4 119 28 25 44
4 120 44 121 122
4 123 121 124 125
4 125 123 126 124
4 127 128 21 124
4 16 129 128 21
4 16 18 14 130
4 16 17 18 19
4 131 17 132 18
4 16 19 18 21
4 133 16 19 134
4 135 134 133 136
4 135 137 136 138
4 137 134 139 140
4 141 142 143 144
4 145 146 147 7
4 142 148 147 146
4 7 146 147 149
4 10 7 9 146
4 145 150 7 151
4 152 151 150 153
4 16 128 154 124
4 124 21 121 133
4 25 28 30 44
4 28 38 45 40
4 45 47 40 42
4 155 45 156 47
4 157 156 47 155
4 155 45 40 117
4 45 42 158 159
4 44 42 43 158
4 119 45 158 159
4 120 44 158 119
4 25 127 21 121
4 25 27 160 30
4 127 25 160 30
4 25 127 121 30
4 44 25 121 30
4 28 30 44 29
4 119 28 44 45
4 119 28 118 25
4 28 24 26 161
4 26 32 29 28
4 28 31 29 38
4 46 38 41 39
4 46 38 39 40
4 28 117 40 45
4 118 28 117 161
4 162 24 118 161
4 118 119 163 164
4 136 119 164 163
4 25 133 21 163
4 128 16 21 124
4 165 166 153 154
4 166 167 168 169
4 167 168 169 170
4 171 168 172 166
4 124 173 126 154
4 123 121 133 124
4 120 125 122 121
4 122 158 44 43
4 47 46 40 42
4 52 50 174 48
4 175 50 174 54
4 176 175 177 178
4 179 60 180 181
4 64 69 63 65
4 68 72 67 66
4 70 73 182 71
4 74 79 183 75
4 184 78 185 79
4 79 184 186 187
4 186 184 188 187
4 184 189 190 191
4 184 78 79 186
4 78 189 184 191
4 189 184 190 188
4 184 78 191 192
4 184 78 192 185
4 192 78 80 185
4 193 80 194 185
4 195 81 196 194
4 81 79 196 194
4 197 187 196 198
4 187 79 185 196
4 79 184 187 185
4 197 199 187 198
4 199 197 187 200
4 199 200 187 186
4 78 201 79 186
4 189 201 87 78
4 202 201 79 74
4 201 74 92 87
4 201 202 92 74
4 201 202 79 186
4 202 203 74 79
4 202 198 203 79
4 204 202 199 203
4 202 203 205 74
4 202 204 205 203
4 182 203 74 205
4 74 203 183 79
4 79 203 183 198
4 79 81 198 183
4 81 79 198 196
4 187 79 196 198
4 202 198 79 186
4 202 204 94 205
4 94 95 205 206
4 207 208 209 210
4 208 207 211 210
4 104 103 211 65
4 104 60 212 213
4 214 215 216 217
4 218 219 220 221
4 222 174 220 221
4 46 39 222 174
4 52 46 40 48
4 40 49 52 48
4 53 49 52 113
4 40 49 155 113
4 155 45 47 40
4 157 47 223 155
4 49 223 224 48
4 52 50 51 54
4 175 54 57 178
4 218 175 54 57
4 225 219 54 57
4 218 175 57 177
4 57 217 219 218
4 219 225 226 57
4 225 227 226 57
4 59 110 57 227
4 59 60 61 228
4 61 60 213 228
4 64 61 213 228
4 63 61 213 64
4 61 104 211 65
4 180 60 104 62
4 58 229 62 180
4 58 60 180 62
4 60 61 104 62
4 60 226 230 212
4 226 60 213 212
4 60 104 212 230
4 179 60 230 104
4 104 211 231 62
4 180 229 62 232
4 180 232 62 231
4 179 60 104 180
4 233 181 105 179
4 181 105 179 230
4 105 214 106 230
4 105 214 230 177
4 215 214 218 217
4 215 217 218 219
4 218 215 219 221
4 218 175 174 54
4 39 52 220 174
4 39 46 52 174
4 115 52 112 35
4 28 115 117 161
4 162 118 116 161
4 24 162 118 163
4 20 19 234 163
4 25 133 163 119
4 120 119 158 235
4 236 119 235 159
4 235 119 158 159
4 119 235 133 136
4 138 235 236 164
4 45 47 42 159
4 46 38 40 42
4 49 50 52 48
4 237 175 176 178
4 181 233 177 176
4 180 179 231 104
4 207 103 65 211
4 207 103 68 65
4 65 66 103 68
4 103 66 97 93
4 66 103 97 63
4 213 104 63 238
4 238 97 103 63
4 104 102 103 238
4 104 106 212 230
4 214 212 106 230
4 214 212 216 106
4 214 212 217 216
4 214 212 230 217
4 226 217 230 212
4 226 60 230 57
4 181 60 57 230
4 179 105 104 230
4 179 105 101 104
4 104 239 103 101
4 239 101 240 100
4 91 241 240 100
4 241 239 240 100
4 239 241 103 100
4 103 210 93 241
4 103 207 93 210
4 210 103 231 239
4 103 239 104 231
4 103 104 63 65
4 65 66 63 103
4 65 66 68 69
4 68 72 66 93
4 96 98 242 97
4 85 96 99 243
4 85 86 99 74
4 86 89 99 74
4 88 86 244 92
4 74 86 92 87
4 201 244 87 92
4 244 86 87 92
4 90 74 92 94
4 94 95 206 245
4 95 209 206 245
4 245 207 95 209
4 208 232 231 211
4 180 104 231 62
4 181 60 107 57
4 54 175 51 178
4 50 52 174 54
4 246 36 52 247
4 246 36 37 35
4 52 31 36 35
4 31 39 52 36
4 39 46 222 41
4 39 222 174 220
4 174 218 220 221
4 218 219 54 220
4 225 219 220 54
4 56 110 54 57
4 110 56 59 57
4 60 59 226 228
4 60 226 213 228
4 57 217 230 226
4 214 217 230 218
4 218 57 230 177
4 181 105 230 177
4 179 60 181 230
4 58 107 180 60
4 229 107 58 248
4 229 107 180 58
4 60 58 59 62
4 58 107 56 248
4 108 56 109 55
4 108 56 55 248
4 107 56 55 57
4 107 181 57 178
4 57 181 177 178
4 181 176 177 178
4 233 181 177 105
4 249 239 101 240
4 91 89 241 100
4 89 91 241 90
4 210 245 93 241
4 245 241 90 93
4 93 94 90 245
4 74 202 92 94
4 205 204 94 206
4 202 198 199 203
4 202 198 186 199
4 199 197 200 250
4 199 186 187 198
4 200 186 188 187
4 184 189 186 188
4 201 189 87 244
4 189 201 78 186
4 201 78 79 87
4 189 78 184 186
4 186 79 187 198
4 74 201 79 87
4 74 79 84 87
4 79 78 84 87
4 77 78 84 79
4 74 77 84 79
4 74 85 84 76
4 83 243 76 85
4 85 96 243 76
4 73 96 74 76
4 96 93 74 99
4 89 93 99 74
4 93 94 74 90
4 93 94 245 95
4 207 95 68 93
4 95 70 68 93
4 95 70 74 205
4 74 70 182 205
4 94 95 74 205
4 241 89 90 93
4 104 179 231 239
4 181 60 180 107
4 107 57 55 178
4 57 54 55 178
4 53 49 51 52
4 40 49 113 52
4 155 47 223 48
4 45 47 159 156
4 119 156 45 159
4 120 44 119 121
4 16 173 124 154
4 166 167 169 145
4 145 7 147 251
4 9 7 252 149
4 253 254 252 255
4 256 253 255 254
4 6 9 252 255
4 253 257 149 252
4 7 258 259 260
4 260 261 251 170
4 169 260 251 170
4 169 251 167 170
4 166 167 145 171
4 16 22 18 130
4 25 24 20 23
4 24 25 118 28
4 119 156 118 45
4 119 28 45 118
4 119 45 44 158
4 44 38 28 29
4 25 28 26 30
4 25 24 26 28
4 24 20 234 163
4 162 24 234 163
4 163 119 118 25
4 235 135 133 136
4 135 134 140 133
4 145 141 153 144
4 145 260 169 151
4 0 258 4 5
4 259 258 262 263
4 264 259 262 263
4 258 7 262 0
4 260 258 259 261
4 258 261 263 259
4 261 258 263 265
4 261 260 251 259
4 167 251 169 145
4 145 260 251 169
4 166 167 171 168
4 16 171 153 140
4 137 135 136 134
4 138 135 235 136
4 235 138 136 164
4 236 119 156 164
4 157 156 159 47
4 155 47 48 40
4 40 49 48 155
4 46 52 174 48
4 247 225 220 54
4 110 225 57 227
4 60 59 57 226
4 104 61 211 62
4 232 211 62 231
4 103 104 211 231
4 239 210 103 241
4 241 93 103 100
4 68 72 93 70
4 103 207 68 93
4 207 103 211 210
4 210 208 231 211
4 103 210 231 211
4 245 207 210 93
4 245 207 209 210
4 245 207 93 95
4 70 95 74 93
4 70 73 74 182
4 182 203 183 74
4 202 74 205 94
4 93 89 90 74
4 89 241 100 93
4 93 98 103 100
4 101 104 102 103
4 104 101 102 106
4 106 238 104 212
4 266 216 212 106
4 106 238 212 266
4 106 238 102 104
4 267 266 238 102
4 97 102 267 238
4 106 238 266 102
4 97 102 238 103
4 97 102 103 98
4 97 102 98 267
4 97 98 242 267
4 96 98 99 242
4 89 98 99 93
4 239 101 100 103
4 104 179 239 101
4 179 249 239 101
4 105 179 101 249
4 233 105 249 179
4 177 181 57 230
4 175 57 177 178
4 175 237 51 178
4 55 54 51 178
4 112 111 109 53
4 112 53 52 113
4 117 115 113 114
4 116 118 117 161
4 115 116 117 161
4 28 115 161 32
4 29 32 26 34
4 26 30 29 27
4 34 26 29 27
4 29 34 31 32
4 31 115 32 35
4 31 115 28 32
4 246 112 52 35
4 246 247 52 54
4 247 110 225 54
4 59 227 57 226
4 213 104 238 212
4 104 103 63 238
4 97 98 103 93
4 70 73 72 74
4 71 182 268 73
4 182 75 268 73
4 182 75 183 268
4 183 81 268 75
4 182 75 74 183
4 79 81 183 75
4 79 81 80 194
4 78 192 80 82
4 192 193 80 82
4 269 193 192 82
4 193 192 80 185
4 80 79 194 185
4 77 74 75 79
4 85 96 76 74
4 96 243 242 99
4 98 102 103 100
4 104 105 106 230
4 214 218 230 177
4 50 175 51 54
4 49 155 223 48
4 157 156 236 159
4 236 119 159 156
4 235 119 164 136
4 236 119 164 235
4 133 235 120 123
4 120 235 133 119
4 135 123 235 133
4 124 173 123 126
4 173 172 126 154
4 166 171 154 172
4 172 171 154 173
4 171 16 154 173
4 171 166 154 153
4 16 171 154 153
4 124 173 16 133
4 124 173 133 123
4 25 133 119 121
4 19 16 133 21
4 163 19 133 21
4 134 19 133 136
4 133 119 136 163
4 133 19 163 136
4 132 20 18 19
4 20 132 234 19
4 20 19 163 21
4 22 20 21 18
4 16 22 21 18
4 128 129 127 21
4 160 129 21 127
4 160 21 25 127
4 25 20 21 23
4 25 27 23 160
4 25 27 30 26
4 23 22 21 160
4 16 129 21 22
4 128 130 165 270
4 128 130 270 129
4 128 130 16 165
4 16 165 153 154
4 17 16 14 153
4 131 17 18 14
4 17 141 153 15
4 12 10 15 153
4 15 17 14 153
4 153 16 14 130
4 16 129 22 130
4 128 130 129 16
4 16 128 165 154
4 151 166 153 165
4 260 145 7 151
4 9 6 252 7
4 7 262 252 149
4 260 259 7 251
4 7 259 147 251
4 264 259 271 149
4 259 7 147 149
4 146 148 147 149
4 271 259 147 149
4 148 271 147 149
4 146 142 143 141
4 144 141 140 139
4 141 134 140 139
4 143 141 144 139
4 142 145 141 146
4 145 142 141 144
4 148 142 143 146
4 145 7 10 146
4 145 150 151 153
4 151 272 150 7
4 151 272 273 150
4 151 272 4 273
4 4 272 2 273
4 151 272 7 4
4 4 260 7 151
4 166 145 151 153
4 166 145 169 151
4 171 166 153 145
4 133 16 140 173
4 124 16 21 133
4 25 21 160 23
4 21 129 160 22
4 121 21 124 127
4 121 120 133 119
4 123 121 125 120
4 123 121 120 133
4 25 133 121 21
4 25 20 163 21
4 118 24 28 161
4 26 28 161 32
4 40 115 28 31
4 115 52 113 112
4 246 112 109 52
4 246 52 109 54
4 56 54 109 55
4 56 107 55 248
4 58 60 59 57
4 63 61 65 104
4 68 72 70 67
4 182 75 73 74
4 77 79 75 80
4 196 79 185 194
4 79 78 185 80
4 77 78 82 84
4 83 77 82 84
4 77 74 84 76
4 96 74 93 72
4 103 66 93 68
4 65 66 69 63
4 63 61 104 213
4 61 60 104 213
4 59 227 226 228
4 274 110 227 225
4 246 36 247 37
4 246 36 35 52
4 52 115 40 31
4 28 31 38 40
4 44 42 158 45
4 120 44 122 158
4 135 133 140 173
4 171 16 173 140
4 171 144 153 140
4 141 144 140 153
4 10 141 15 153
4 10 12 15 13
4 10 8 12 13
4 8 10 12 11
4 8 9 11 255
4 9 253 149 252
4 257 262 149 252
4 262 259 149 7
4 258 7 4 260
4 259 258 7 262
4 262 0 7 252
4 0 6 7 252
4 254 6 252 255
4 0 3 6 252
4 6 3 254 252
4 272 6 11 7
4 4 6 272 7
4 4 6 2 272
4 9 6 11 255
4 9 253 252 255
4 262 264 257 149
4 257 264 275 271
4 259 264 262 149
4 257 264 271 149
4 9 146 7 149
4 10 7 11 9
4 7 12 10 11
4 145 150 153 12
4 12 145 10 153
4 145 146 10 141
4 145 142 147 146
4 171 145 153 144
4 171 142 145 144
4 142 171 145 167
4 142 145 147 167
4 167 145 147 251
4 145 260 7 251
4 145 150 12 7
4 12 145 7 10
4 12 152 153 14
4 152 153 14 130
4 152 151 153 165
4 165 152 276 270
4 152 151 165 276
4 165 152 270 130
4 152 151 276 150
4 276 150 151 273
4 272 7 11 150
4 7 12 11 150
4 153 150 152 12
4 165 16 153 130
4 165 152 130 153
4 15 12 153 14
4 13 131 14 15
4 17 131 15 14
4 17 132 18 19
4 25 24 163 20
4 25 24 118 163
4 119 156 164 118
4 118 117 45 156
4 155 45 117 156
4 113 40 117 155
4 50 49 224 48
4 49 50 224 51
4 50 237 224 51
4 237 50 175 51
4 52 54 220 174
4 52 247 220 54
4 39 247 220 52
4 39 247 52 36
4 115 52 35 31
4 40 115 52 113
4 40 115 113 117
4 115 112 113 114
4 53 52 51 54
4 54 53 109 55
4 52 53 109 54
4 110 246 109 54
4 247 110 54 246
4 247 110 274 225
4 246 274 37 247
4 247 110 246 274
4 110 225 54 57
4 57 217 226 219
4 57 217 218 230
4 219 218 54 57
4 218 54 174 220
4 46 39 52 40
4 39 31 52 40
4 38 42 45 40
4 28 38 44 45
4 121 25 44 119
4 123 135 173 133
4 134 153 140 16
4 134 16 140 133
4 137 135 134 140
4 134 153 141 140
4 134 153 16 17
4 16 17 19 134
4 134 153 17 141
4 153 145 10 141
4 6 9 11 7
4 258 7 0 4
4 1 0 2 5

CELL_TYPES 734
10
10
10
10
10
10
10
10
10
10
10
10
10
10
10
10
10
10
10
10
10
10
10
10
10
10
10
10
10
10
10
10
10
10
10
10
10
10
10
10
10
10
10
10
10
10
10
10
10
10
10
10
10
10
10
10
10
10
10
10
10
10
10
10
10
10
10
10
10
10
10
10
10
10
10
10
10
10
10
10
10
10
10
10
10
10
10
10
10
10
10
10
10
10
10
10
10
10
10
10
10
10
10
10
10
10
10
10
10
10
10
10
10
10
10
10
10
10
10
10
10
10
10
10
10
10
10
10
10
10
10
10
10
10
10
10
10
10
10
10
10
10
10
10
10
10
10
10
10
10
10
10
10
10
10
10
10
10
10
10
10
10
10
10
10
10
10
10
10
10
10
10
10
10
10
10
10
10
10
10
10
10
10
10
10
10
10
10
10
10
10
10
10
10
10
10
10
10
10
10
10
10
10
10
10
10
10
10
10
10
10
10
10
10
10
10
10
10
10
10
10
10
10
10
10
10
10
10
10
10
10
10
10
10
10
10
10
10
10
10
10
10
10
10
10
10
10
10
10
10
10
10
10
10
10
10
10
10
10
10
10
10
10
10
10
10
10
10
10
10
10
10
10
10
10
10
10
10
10
10
10
10
10
10
10
10
10
10
10
10
10
10
10
10
10
10
10
10
10
10
10
10
10
10
10
10
10
10
10
10
10
10
10
10
10
10
10
10
10
10
10
10
10
10
10
10
10
10
10
10
10
10
10
10
10
10
10
10
10
10
10
10
10
10
10
10
10
10
10
10
10
10
10
10
10
10
10
10
10
10
10
10
10
10
10
10
10
10
10
10
10
10
10
10
10
10
10
10
10
10
10
10
10
10
10
10
10
10
10
10
10
10
10
10
10
10
10
10
10
10
10
10
10
10
10
10
10
10
10
10
10
10
10
10
10
10
10
10
10
10
10
10
10
10
10
10
10
10
10
10
10
10
10
10
10
10
10
10
10
10
10
10
10
10
10
10
10
10
10
10
10
10
10
10
10
10
10
10
10
10
10
10
10
10
10
10
10
10
10
10
10
10
10
10
10
10
10
10
10
10
10
10
10
10
10
10
10
10
10
10
10
10
10
10
10
10
10
10
10
10
10
10
10
10
10
10
10
10
10
10
10
10
10
10
10
10
10
10
10
10
10
10
10
10
10
10
10
10
10
10
10
10
10
10
10
10
10
10
10
10
10
10
10
10
10
10
10
10
10
10
10
10
10
10
10
10
10
10
10
10
10
10
10
10
10
10
10
10
10
10
10
10
10
10
10
10
10
10
10
10
10
10
10
10
10
10
10
10
10
10
10
10
10
10
10
10
10
10
10
10
10
10
10
10
10
10
10
10
10
10
10
10
10
10
10
10
10
10
10
10
10
10
10
10
10
10
10
10
10
10
10
10
10
10
10
10
10
10
10
10
10
10
10
10
10
10
10
10
10
10
10
10
10
10
10
10
10
10
10
10
10
10
10
10
10
10
10
10
10
10
10
10
10
10
10
10
10
10
10
10
10
10
10
10
10
10
10
10
10
10
10
10
10
10
10
10
10
10
10
10
10
10
10
10
10
10
10
10
10
10
10
10
10
10
10
10
10
10
10
10
10
10
10
10
10
10
10
10
10
10
10
10
10
10

CELL_DATA 734
SCALARS potentialEnergy FLOAT 1
LOOKUP_TABLE default
70.451141
48.900990
113.839218
99.123108
94.662720
39.465260
135.856476
94.525505
156.831024
103.293854
73.244553
101.632591
75.549339
198.405045
70.579159
294.970062
50.836071
20.898824
120.322845
122.971016
154.965546
59.854202
123.796997
80.010574
75.107567
160.764633
68.023254
45.582035
67.321350
70.331375
126.368591
76.618759
153.078873
36.241407
118.664787
162.509232
139.731598
24.212276
34.958164
50.270199
41.055363
72.527367
48.717598
60.617474
81.561363
46.087757
59.249332
104.663300
24.456357
57.916409
90.666290
82.349922
50.572948
71.272831
65.140800
77.479698
246.697693
155.339844
79.029686
101.117226
47.103184
31.944420
36.970858
80.971077
62.198929
74.591866
62.138817
198.208542
223.948044
130.435616
30.477930
37.319725
62.095131
30.142918
15.246940
74.061325
71.175453
124.085541
62.497345
37.577271
35.302021
19.864359
74.321121
67.543621
70.416637
101.109398
68.562294
35.131186
34.540165
160.959900
127.394348
79.278992
129.724670
196.507690
130.145088
139.548874
131.986214
183.595779
83.265472
40.466558
54.186249
101.440948
33.490433
42.791260
37.320705
32.009733
65.679863
66.821114
98.249725
178.005829
46.042622
94.933846
125.961884
127.500648
309.434387
231.697296
118.899368
46.806332
55.500160
29.545784
65.422501
40.616085
99.252937
87.515839
27.599102
72.729824
69.006100
53.070244
100.631599
72.183582
189.525650
86.456757
112.703583
63.334057
110.011307
88.328926
54.443478
43.036625
89.604752
180.592484
83.766220
83.725235
93.514977
78.102356
91.469559
148.056885
109.375298
262.279404
382.928436
142.120819
282.312103
361.415283
150.618073
291.432220
122.310280
98.775047
63.063171
62.441483
159.573975
48.277718
66.976437
24.511409
41.024477
134.495270
84.328400
142.304810
142.271255
85.503372
40.132286
101.835297
76.319473
106.012024
173.332520
221.618637
152.339767
164.716141
44.734848
26.753729
133.933090
78.229874
68.200356
77.088593
32.532705
35.663465
75.609909
111.612129
183.429230
202.267410
72.253582
109.293510
181.249664
143.805847
131.798874
91.311714
48.932278
42.132179
40.974010
81.243340
53.648872
57.223473
38.086260
89.885193
43.455086
57.917755
42.613129
43.128227
56.920269
110.316345
21.028696
135.819832
157.825867
32.901354
26.858925
103.528732
101.094292
173.975677
42.985985
37.577278
53.618027
17.242599
55.425808
59.502861
36.449766
52.046684
58.466427
79.047646
96.255608
232.854019
159.131912
97.601868
129.206306
72.197720
45.108849
68.391945
73.821842
89.953400
61.573460
45.923996
63.313194
25.588990
107.013756
276.367584
137.084450
48.509354
23.504952
87.839333
94.791405
93.881187
111.134239
55.647720
105.079781
59.220135
55.034271
81.682663
87.947609
59.837776
41.675705
42.311825
31.659206
61.867172
37.579027
144.955231
181.525085
411.325958
98.956322
87.150108
88.863014
54.106869
111.072220
74.777733
209.467804
91.897682
127.767998
74.166489
98.238197
116.289040
106.694168
41.580273
32.226992
44.624008
50.191811
81.170151
171.844894
33.520433
86.067299
43.205559
36.362093
209.644058
42.187725
73.279305
131.286034
22.254601
74.703384
91.742668
89.358238
28.884007
152.001083
85.782578
193.809006
116.605209
48.001743
99.604424
95.110535
81.413895
139.323074
41.142879
33.769753
81.095322
92.193810
52.865738
83.639702
109.424942
23.672583
41.271486
57.279476
55.192451
48.362213
58.899685
39.678017
71.505737
40.468927
66.988514
42.028324
18.558330
157.153732
16.805104
76.264580
107.862991
90.865883
63.883991
124.123039
34.147442
136.931366
174.404297
118.441566
126.825264
92.773232
124.324203
39.718096
76.135437
161.139481
134.170761
188.325455
51.114292
53.696186
118.624985
199.936676
55.551849
36.152910
41.518082
46.386806
130.465645
45.349251
43.767540
88.476349
48.254284
86.690834
113.987686
42.571861
58.635719
37.098833
102.473457
83.624550
38.245190
15.701604
42.101154
39.355389
156.258316
37.995232
135.415428
45.923763
96.899101
108.055183
99.291931
24.490356
43.412743
57.289944
49.814690
80.664963
28.467255
40.964907
36.873547
30.591841
58.829712
139.510757
88.502350
58.192837
97.220703
104.777748
69.430256
58.476902
104.073669
128.928787
122.077705
79.178802
127.295158
87.656685
34.087097
107.493317
132.249519
27.199429
90.876640
23.789415
19.495858
30.406170
46.075081
19.613426
25.574549
19.437821
69.410648
73.618973
71.394966
43.733723
21.780420
29.376799
18.595182
29.560392
88.089355
148.795471
113.500481
121.968536
78.754082
73.414967
30.910566
90.575508
42.749146
134.713737
54.436630
61.196075
163.942764
31.306461
181.390839
69.294182
142.373703
128.507607
59.784103
105.309128
63.208305
53.330776
78.268318
88.836739
75.501305
36.927755
50.250572
73.532955
159.046783
80.429863
56.701122
46.846237
139.312973
106.896057
26.967722
46.798405
47.493156
134.365379
77.253525
135.229836
19.171806
57.247559
268.268921
105.563934
155.505066
78.909981
97.916824
93.591034
94.083572
35.816090
91.536819
43.534676
105.696938
83.657654
91.452835
124.040726
79.692085
70.804558
30.803898
81.347069
76.309319
93.202019
86.843002
85.914276
80.362053
95.725769
36.417702
52.303734
89.426392
56.474236
43.545124
65.177986
57.796574
90.683533
116.306885
66.894699
186.493515
237.735901
369.466919
149.939896
120.358704
195.905624
154.179413
50.541630
93.931427
85.356728
155.864761
127.067009
66.407608
115.426270
48.615974
74.550461
34.473410
31.308290
66.804977
72.505367
31.791704
49.612625
99.222107
60.688263
106.395683
87.993965
116.068787
137.989380
148.113571
67.559639
46.020691
52.518772
35.194672
164.559296
29.815250
45.490505
63.621105
49.061420
99.051727
74.182892
65.732986
33.620119
138.459412
39.946760
28.624973
141.982437
76.876556
24.240652
52.406864
19.454241
57.847160
21.565646
68.978745
64.070271
100.131668
158.494019
131.521271
107.866554
214.105713
71.191990
52.230839
40.142208
76.622299
226.652191
59.500000
68.636974
36.735229
27.212725
25.612499
27.261154
46.939804
54.018307
26.183161
102.641747
108.510437
68.235710
59.682861
138.734100
182.716797
113.906555
168.993958
50.714233
179.755341
67.604492
34.989920
34.662189
78.324722
66.022495
75.041420
115.829216
32.148617
99.732880
94.842545
42.689640
33.011887
64.035492
40.431040
44.036709
49.257271
146.986282
44.125572
106.937889
78.080223
80.418663
244.199280
175.580383
107.198807
73.714233
125.265427
54.079979
62.281029
133.878731
71.577412
159.361496
94.593239
315.934357
229.047714
105.275009
199.766846
82.093552
86.090378
77.219650
36.798185
77.412689
100.168961
85.542549
30.573315
52.607281
114.952072
165.399704
112.423256
81.634552
29.079216
28.029919
88.826851
73.736683
88.789879
73.070751
80.954384
38.439983
57.959293
26.379595
136.908249
34.440706
41.477646
80.320961
45.025883
24.822083
66.326508
69.944500
89.105797
86.250580
33.908960
115.433128
61.228413
29.408663
56.021839
34.924648
34.897139
41.212433
48.198521
267.941284
72.296879
80.906136
387.082916
135.015320
210.306137
340.703796
47.625309
65.349907
55.159943
76.466537
34.752691
90.506531
54.647675
64.228760
190.583618
130.291321
89.547455
69.626740
105.804375
80.650154
126.457382
149.210190
56.589199
78.982414
182.081802
150.300613
87.623421
221.041748
210.506271
123.193810
176.494431
239.990891
59.831387
50.329350
173.816528
166.528534
154.526459
63.705723
76.115036
14.725544
30.946177
72.402973
62.038979
89.280106
41.315504
199.196701
134.812431
146.333679
52.040813
60.607204
69.208805
120.433479
102.488747
102.108788
42.266441
81.869064
41.575726
83.217361
45.106125
151.875610
24.427229
75.212387
132.897522
99.015045
193.413040
138.970871
94.513359
24.644112
157.685303
45.055058
21.087053
118.968613
96.294235
46.758999
85.413216
105.387314
33.762547
29.344471
57.491798

