# vtk DataFile Version 3.1
Tetrahedral Mesh Visualization
ASCII
DATASET UNSTRUCTURED_GRID

POINTS 277 FLOAT
0.000000 1.378113 1.754166
0.000000 0.000000 0.000000
2.000439 -0.019367 0.025752
0.000000 1.666667 0.000000
2.420491 -0.038401 1.764256
0.000000 0.000000 1.666667
1.696337 2.450568 0.022740
2.998362 2.408166 2.361083
3.998757 4.961214 0.049908
3.075803 4.960925 1.692918
5.208776 4.953469 1.671057
3.493431 3.147044 0.048470
5.411744 3.267625 0.055774
5.997950 4.960002 0.062035
7.372962 3.291328 0.060371
6.968061 4.955042 1.388736
9.255122 2.143187 2.080785
8.691728 4.963503 1.679691
9.356981 3.306172 0.057355
10.656849 4.967129 1.721875
11.361232 3.315231 0.062192
11.122063 1.843125 1.610501
10.693415 1.649675 0.054344
12.698503 1.650444 0.067522
13.363030 3.316490 0.076912
12.986217 1.852894 1.562968
14.701921 1.646665 0.097165
14.035139 -0.022415 0.084500
15.482052 2.125747 1.792789
15.353360 -0.018228 1.754100
13.349702 -0.026453 1.736851
17.314320 -0.009995 1.739115
16.707047 1.654787 0.123893
18.051296 -0.002980 0.146801
16.043667 -0.015781 0.111313
18.722874 1.664551 0.157621
19.035053 -0.001474 1.482141
20.064854 0.004694 0.187944
16.731731 -0.017134 3.420189
18.993467 -0.008679 3.264081
17.694496 2.684585 3.081716
17.961147 -0.016393 5.137485
16.637344 1.640464 5.120875
15.968884 -0.035552 5.104946
14.683644 -0.033181 3.414953
15.761100 2.870408 3.460480
18.676401 1.689733 5.147283
17.258430 3.323637 5.134573
19.216560 3.392047 5.163562
19.295025 5.007514 3.491860
20.916651 3.698145 5.200924
21.295891 5.017764 3.544027
19.625992 2.499128 2.523809
20.670422 5.018030 1.864381
21.905542 2.520294 2.707138
22.672680 5.021383 1.923947
23.356167 3.414755 0.285354
23.964705 2.458737 2.597789
25.072186 3.700148 0.344026
25.066866 1.909719 0.345396
25.997959 2.511050 2.104466
27.336287 1.706134 0.413819
26.785135 3.396208 0.401457
29.287186 0.004954 2.103746
28.079861 0.010295 0.442858
29.389261 1.682739 0.498443
31.008656 0.006942 1.888988
32.081535 0.008740 0.623775
31.389246 1.673900 0.598993
30.081345 0.016862 0.518558
33.348160 1.662587 0.702326
34.080761 0.019224 0.713162
32.689392 0.002012 2.270227
34.608429 0.009036 2.419956
34.973179 2.395459 3.321060
36.523540 0.009509 2.621100
35.097305 -0.011839 4.136132
36.789047 -0.015856 4.358394
38.179089 2.501560 5.924324
37.686703 2.168608 3.077404
38.297260 0.001954 3.422637
38.094959 0.038543 0.885744
37.892715 -0.026999 5.868858
35.897980 -0.029208 5.778142
36.452770 1.717180 5.826918
34.824444 1.300056 5.762607
34.731945 3.096058 5.780852
36.637440 3.454174 5.865455
33.876019 4.964476 5.754640
32.577248 3.272415 5.685705
33.216084 4.985147 4.069005
31.875593 4.975206 5.649371
35.095104 4.980174 4.202629
32.190708 2.599652 3.085394
34.603516 4.990039 2.474722
32.717369 3.335974 0.677742
33.160404 -0.008179 3.995168
30.944515 -0.001704 3.679470
31.198965 1.640316 5.599339
33.132629 1.576091 5.698394
30.551924 3.315325 5.575597
28.555063 3.328969 5.469536
29.215782 1.658237 5.498528
30.006691 2.504133 3.012511
27.950821 2.493181 2.915314
26.565117 3.343791 5.376625
27.219612 1.667751 5.408216
24.674372 5.011508 1.989830
22.055857 5.015206 0.243494
21.393324 3.356092 0.225839
22.797794 1.719778 0.264969
20.044758 4.999674 0.182814
19.387535 3.333301 0.175449
18.662903 5.001855 1.812884
18.033487 4.989496 0.137861
17.375557 3.321765 0.129494
16.021849 4.984375 0.108892
16.661308 4.988955 1.776288
14.662706 4.980405 1.763022
13.686767 2.924549 3.350982
12.968187 1.284677 5.072560
12.669545 -0.029598 3.394294
13.972898 -0.041556 5.077100
11.252800 1.575415 5.059209
10.663377 -0.031192 3.380524
11.982925 -0.047222 5.051655
9.994092 -0.042688 5.050631
11.344436 -0.019431 1.715797
9.321479 -0.029468 1.713046
10.024315 -0.016894 0.045843
8.700332 1.634380 0.052551
7.999964 4.966185 0.069693
10.010109 4.972516 0.067297
11.215404 2.611605 3.342256
9.245358 4.960085 3.369854
10.723604 3.267963 5.062964
11.297272 4.966374 3.393529
9.987709 4.956542 5.068026
11.974008 4.960858 5.076585
7.986178 4.948255 5.069505
8.727536 3.341462 5.060193
6.958226 4.952869 3.177413
5.352179 3.310275 5.052603
5.992980 4.944996 5.063617
7.019784 3.625196 5.057069
5.138889 2.314471 3.185514
4.619186 4.948555 3.344851
3.485074 3.140660 5.041245
3.996474 4.947434 5.050440
2.370222 4.961525 3.315355
4.846443 1.565929 0.052023
4.906818 -0.053576 1.920056
6.735166 1.613876 0.061000
7.012154 2.513985 2.248659
8.660089 -0.048292 3.384044
17.298557 4.995158 3.456840
15.308074 4.985178 3.435533
15.951577 4.984159 5.116670
14.679527 1.573761 5.094223
15.220998 3.278875 5.104198
12.033812 -0.012784 0.056434
15.367552 3.311873 0.103868
14.026093 4.988322 0.095364
12.662255 4.974210 1.742230
13.308398 4.967896 3.415538
7.251760 -0.046705 1.743380
6.673979 -0.058458 3.421029
4.907077 1.586187 5.045202
6.003050 -0.064471 5.039853
4.914519 -0.054756 3.703809
4.000242 -0.050088 5.040864
7.038879 1.829101 5.048361
7.997322 -0.056786 5.043611
9.258540 1.643861 5.051154
20.923923 1.904400 5.210181
22.622524 3.411953 5.250308
23.912243 5.021612 5.293453
24.571726 3.360571 5.313288
23.292761 5.023356 3.605124
27.293224 5.010512 3.741063
26.679625 5.006673 2.055390
25.292456 5.017540 3.672445
35.240990 1.625771 0.781728
36.925060 1.484296 0.841673
39.933067 3.248649 4.641865
39.978367 1.640512 3.602720
38.276207 5.000822 3.486272
40.003170 3.266685 2.917863
39.935287 5.005937 4.361676
37.869423 4.981342 5.935299
39.865288 5.001090 6.024881
39.882370 3.328142 6.013636
39.879978 1.655804 6.005920
39.954441 0.002220 4.313327
40.030468 0.018720 2.653185
40.104843 0.042222 0.994353
40.102398 1.700699 1.014588
40.091038 3.363350 1.026122
38.399204 2.490053 0.928146
38.082748 5.015777 0.937872
40.003273 5.019229 2.699380
36.768623 4.985274 4.427689
36.513477 5.005689 2.692712
36.596706 3.202850 0.857561
36.077892 5.019228 0.850171
34.679321 3.310040 0.771023
34.085247 4.998057 0.747505
30.736879 3.339791 0.569967
30.092024 5.001816 0.540038
32.092113 5.008397 0.652244
30.674843 4.999078 2.238876
28.744555 3.350523 0.471140
26.679071 0.000692 3.773440
27.274305 0.006129 2.097653
25.220743 1.686618 5.346529
23.920849 0.018514 5.311161
25.905029 0.007016 5.371732
24.953901 0.009483 4.013609
23.178894 1.715921 5.281134
23.240803 0.014684 3.667909
21.240837 0.010275 3.532166
21.928898 0.015213 5.251558
19.944899 0.001154 5.187324
17.935551 5.000506 5.131637
19.923067 5.012814 5.175997
22.752518 0.008256 1.952960
25.005167 0.004593 2.223230
24.064461 0.020256 0.307283
26.065619 0.016549 0.373309
26.079206 5.014650 0.376065
25.656668 2.244137 3.840947
28.681149 5.005006 2.136265
28.080898 5.003586 0.448411
25.910217 5.011765 5.359608
12.022304 4.981378 0.075880
12.974757 3.075717 5.077039
13.963255 4.977170 5.089066
21.917244 5.022513 5.228060
28.688589 -0.000307 3.772874
29.277763 5.002032 3.835687
29.883278 4.993590 5.538893
31.257273 4.990799 3.947197
31.884544 -0.017815 5.618450
33.892441 -0.027386 5.712209
35.873657 4.970442 5.842615
32.652649 4.998939 2.356448
20.744709 1.678773 0.203106
20.748699 0.004130 1.820837
24.069372 5.018554 0.305744
27.898918 5.004475 5.440060
40.076477 5.025572 1.026708
3.180023 1.417336 5.036403
0.000000 3.103853 1.750106
0.000000 5.000000 1.666667
0.000000 3.333333 0.000000
2.001736 4.977083 0.031825
0.000000 5.000000 0.000000
0.000000 5.000000 3.333333
0.000000 0.000000 3.333333
1.696611 2.438581 5.022874
3.034297 -0.049611 3.425820
1.996141 -0.041033 5.022980
0.000000 2.403264 3.370902
0.000000 1.666667 5.000000
0.000000 3.333333 5.000000
0.000000 0.000000 5.000000
27.894320 0.000290 5.434921
29.887028 -0.011197 5.516914
36.084164 0.031420 0.781808
39.887360 -0.022668 5.967366
8.017469 -0.032348 0.047356
1.998829 4.966581 5.031044
3.164478 1.423360 0.037162
4.002281 -0.035983 0.038797
22.066076 0.018722 0.242542
0.000000 5.000000 5.000000
6.011045 -0.034885 0.048635

CELLS 734 3670
4 0 1 2 3
4 0 4 2 5
4 0 3 2 6
4 4 6 0 2
4 4 6 7 0
4 8 9 10 11
4 12 13 14 15
4 16 17 14 18
4 19 20 18 21
4 20 22 21 23
4 24 25 26 23
4 25 27 26 23
4 26 28 29 30
4 28 29 31 32
4 33 34 32 31
4 31 33 35 32
4 31 33 36 35
4 33 37 36 35
4 38 39 40 31
4 41 42 43 38
4 44 42 45 38
4 44 42 38 43
4 46 38 42 41
4 46 47 40 48
4 49 50 51 52
4 53 54 51 55
4 56 54 55 57
4 56 58 59 57
4 60 59 61 62
4 63 61 64 65
4 66 67 68 69
4 67 70 71 72
4 73 74 75 76
4 74 77 75 76
4 77 78 79 80
4 79 81 75 80
4 77 78 80 82
4 77 83 76 84
4 83 85 76 84
4 85 86 74 84
4 74 86 87 84
4 88 89 86 90
4 91 89 88 90
4 86 88 90 92
4 90 86 92 74
4 86 89 74 90
4 93 94 95 74
4 70 74 72 93
4 70 73 71 72
4 74 96 73 72
4 66 97 93 72
4 96 97 72 93
4 96 98 97 93
4 85 96 74 99
4 96 98 93 99
4 98 89 100 93
4 101 102 100 103
4 104 105 101 106
4 107 58 57 60
4 58 107 57 56
4 53 108 109 55
4 56 110 109 54
4 53 111 109 108
4 112 53 109 52
4 111 112 113 53
4 112 111 113 114
4 115 116 114 117
4 40 28 115 117
4 45 117 118 28
4 119 28 25 44
4 120 44 121 122
4 123 121 124 125
4 125 123 126 124
4 127 128 21 124
4 16 129 128 21
4 16 18 14 130
4 16 17 18 19
4 131 17 132 18
4 16 19 18 21
4 133 16 19 134
4 135 134 133 136
4 135 137 136 138
4 137 134 139 140
4 141 142 143 144
4 145 146 147 7
4 142 148 147 146
4 7 146 147 149
4 10 7 9 146
4 145 150 7 151
4 152 151 150 153
4 16 128 154 124
4 124 21 121 133
4 25 28 30 44
4 28 38 45 40
4 45 47 40 42
4 155 45 156 47
4 157 156 47 155
4 155 45 40 117
4 45 42 158 159
4 44 42 43 158
4 119 45 158 159
4 120 44 158 119
4 25 127 21 121
4 25 27 160 30
4 127 25 160 30
4 25 127 121 30
4 44 25 121 30
4 28 30 44 29
4 119 28 44 45
4 119 28 118 25
4 28 24 26 161
4 26 32 29 28
4 28 31 29 38
4 46 38 41 39
4 46 38 39 40
4 28 117 40 45
4 118 28 117 161
4 162 24 118 161
4 118 119 163 164
4 136 119 164 163
4 25 133 21 163
4 128 16 21 124
4 165 166 153 154
4 166 167 168 169
4 167 168 169 170
4 171 168 172 166
4 124 173 126 154
4 123 121 133 124
4 120 125 122 121
4 122 158 44 43
4 47 46 40 42
4 52 50 174 48
4 175 50 174 54
4 176 175 177 178
4 179 60 180 181
4 64 69 63 65
4 68 72 67 66
4 70 73 182 71
4 74 79 183 75
4 184 78 185 79
4 79 184 186 187
4 186 184 188 187
4 184 189 190 191
4 184 78 79 186
4 78 189 184 191
4 189 184 190 188
4 184 78 191 192
4 184 78 192 185
4 192 78 80 185
4 193 80 194 185
4 195 81 196 194
4 81 79 196 194
4 197 187 196 198
4 187 79 185 196
4 79 184 187 185
4 197 199 187 198
4 199 197 187 200
4 199 200 187 186
4 78 201 79 186
4 189 201 87 78
4 202 201 79 74
4 201 74 92 87
4 201 202 92 74
4 201 202 79 186
4 202 203 74 79
4 202 198 203 79
4 204 202 199 203
4 202 203 205 74
4 202 204 205 203
4 182 203 74 205
4 74 203 183 79
4 79 203 183 198
4 79 81 198 183
4 81 79 198 196
4 187 79 196 198
4 202 198 79 186
4 202 204 94 205
4 94 95 205 206
4 207 208 209 210
4 208 207 211 210
4 104 103 211 65
4 104 60 212 213
4 214 215 216 217
4 218 219 220 221
4 222 174 220 221
4 46 39 222 174
4 52 46 40 48
4 40 49 52 48
4 53 49 52 113
4 40 49 155 113
4 155 45 47 40
4 157 47 223 155
4 49 223 224 48
4 52 50 51 54
4 175 54 57 178
4 218 175 54 57
4 225 219 54 57
4 218 175 57 177
4 57 217 219 218
4 219 225 226 57
4 225 227 226 57
4 59 110 57 227
4 59 60 61 228
4 61 60 213 228
4 64 61 213 228
4 63 61 213 64
4 61 104 211 65
4 180 60 104 62
4 58 229 62 180
4 58 60 180 62
4 60 61 104 62
4 60 226 230 212
4 226 60 213 212
4 60 104 212 230
4 179 60 230 104
4 104 211 231 62
4 180 229 62 232
4 180 232 62 231
4 179 60 104 180
4 233 181 105 179
4 181 105 179 230
4 105 214 106 230
4 105 214 230 177
4 215 214 218 217
4 215 217 218 219
4 218 215 219 221
4 218 175 174 54
4 39 52 220 174
4 39 46 52 174
4 115 52 112 35
4 28 115 117 161
4 162 118 116 161
4 24 162 118 163
4 20 19 234 163
4 25 133 163 119
4 120 119 158 235
4 236 119 235 159
4 235 119 158 159
4 119 235 133 136
4 138 235 236 164
4 45 47 42 159
4 46 38 40 42
4 49 50 52 48
4 237 175 176 178
4 181 233 177 176
4 180 179 231 104
4 207 103 65 211
4 207 103 68 65
4 65 66 103 68
4 103 66 97 93
4 66 103 97 63
4 213 104 63 238
4 238 97 103 63
4 104 102 103 238
4 104 106 212 230
4 214 212 106 230
4 214 212 216 106
4 214 212 217 216
4 214 212 230 217
4 226 217 230 212
4 226 60 230 57
4 181 60 57 230
4 179 105 104 230
4 179 105 101 104
4 104 239 103 101
4 239 101 240 100
4 91 241 240 100
4 241 239 240 100
4 239 241 103 100
4 103 210 93 241
4 103 207 93 210
4 210 103 231 239
4 103 239 104 231
4 103 104 63 65
4 65 66 63 103
4 65 66 68 69
4 68 72 66 93
4 96 98 242 97
4 85 96 99 243
4 85 86 99 74
4 86 89 99 74
4 88 86 244 92
4 74 86 92 87
4 201 244 87 92
4 244 86 87 92
4 90 74 92 94
4 94 95 206 245
4 95 209 206 245
4 245 207 95 209
4 208 232 231 211
4 180 104 231 62
4 181 60 107 57
4 54 175 51 178
4 50 52 174 54
4 246 36 52 247
4 246 36 37 35
4 52 31 36 35
4 31 39 52 36
4 39 46 222 41
4 39 222 174 220
4 174 218 220 221
4 218 219 54 220
4 225 219 220 54
4 56 110 54 57
4 110 56 59 57
4 60 59 226 228
4 60 226 213 228
4 57 217 230 226
4 214 217 230 218
4 218 57 230 177
4 181 105 230 177
4 179 60 181 230
4 58 107 180 60
4 229 107 58 248
4 229 107 180 58
4 60 58 59 62
4 58 107 56 248
4 108 56 109 55
4 108 56 55 248
4 107 56 55 57
4 107 181 57 178
4 57 181 177 178
4 181 176 177 178
4 233 181 177 105
4 249 239 101 240
4 91 89 241 100
4 89 91 241 90
4 210 245 93 241
4 245 241 90 93
4 93 94 90 245
4 74 202 92 94
4 205 204 94 206
4 202 198 199 203
4 202 198 186 199
4 199 197 200 250
4 199 186 187 198
4 200 186 188 187
4 184 189 186 188
4 201 189 87 244
4 189 201 78 186
4 201 78 79 87
4 189 78 184 186
4 186 79 187 198
4 74 201 79 87
4 74 79 84 87
4 79 78 84 87
4 77 78 84 79
4 74 77 84 79
4 74 85 84 76
4 83 243 76 85
4 85 96 243 76
4 73 96 74 76
4 96 93 74 99
4 89 93 99 74
4 93 94 74 90
4 93 94 245 95
4 207 95 68 93
4 95 70 68 93
4 95 70 74 205
4 74 70 182 205
4 94 95 74 205
4 241 89 90 93
4 104 179 231 239
4 181 60 180 107
4 107 57 55 178
4 57 54 55 178
4 53 49 51 52
4 40 49 113 52
4 155 47 223 48
4 45 47 159 156
4 119 156 45 159
4 120 44 119 121
4 16 173 124 154
4 166 167 169 145
4 145 7 147 251
4 9 7 252 149
4 253 254 252 255
4 256 253 255 254
4 6 9 252 255
4 253 257 149 252
4 7 258 259 260
4 260 261 251 170
4 169 260 251 170
4 169 251 167 170
4 166 167 145 171
4 16 22 18 130
4 25 24 20 23
4 24 25 118 28
4 119 156 118 45
4 119 28 45 118
4 119 45 44 158
4 44 38 28 29
4 25 28 26 30
4 25 24 26 28
4 24 20 234 163
4 162 24 234 163
4 163 119 118 25
4 235 135 133 136
4 135 134 140 133
4 145 141 153 144
4 145 260 169 151
4 0 258 4 5
4 259 258 262 263
4 264 259 262 263
4 258 7 262 0
4 260 258 259 261
4 258 261 263 259
4 261 258 263 265
4 261 260 251 259
4 167 251 169 145
4 145 260 251 169
4 166 167 171 168
4 16 171 153 140
4 137 135 136 134
4 138 135 235 136
4 235 138 136 164
4 236 119 156 164
4 157 156 159 47
4 155 47 48 40
4 40 49 48 155
4 46 52 174 48
4 247 225 220 54
4 110 225 57 227
4 60 59 57 226
4 104 61 211 62
4 232 211 62 231
4 103 104 211 231
4 239 210 103 241
4 241 93 103 100
4 68 72 93 70
4 103 207 68 93
4 207 103 211 210
4 210 208 231 211
4 103 210 231 211
4 245 207 210 93
4 245 207 209 210
4 245 207 93 95
4 70 95 74 93
4 70 73 74 182
4 182 203 183 74
4 202 74 205 94
4 93 89 90 74
4 89 241 100 93
4 93 98 103 100
4 101 104 102 103
4 104 101 102 106
4 106 238 104 212
4 266 216 212 106
4 106 238 212 266
4 106 238 102 104
4 267 266 238 102
4 97 102 267 238
4 106 238 266 102
4 97 102 238 103
4 97 102 103 98
4 97 102 98 267
4 97 98 242 267
4 96 98 99 242
4 89 98 99 93
4 239 101 100 103
4 104 179 239 101
4 179 249 239 101
4 105 179 101 249
4 233 105 249 179
4 177 181 57 230
4 175 57 177 178
4 175 237 51 178
4 55 54 51 178
4 112 111 109 53
4 112 53 52 113
4 117 115 113 114
4 116 118 117 161
4 115 116 117 161
4 28 115 161 32
4 29 32 26 34
4 26 30 29 27
4 34 26 29 27
4 29 34 31 32
4 31 115 32 35
4 31 115 28 32
4 246 112 52 35
4 246 247 52 54
4 247 110 225 54
4 59 227 57 226
4 213 104 238 212
4 104 103 63 238
4 97 98 103 93
4 70 73 72 74
4 71 182 268 73
4 182 75 268 73
4 182 75 183 268
4 183 81 268 75
4 182 75 74 183
4 79 81 183 75
4 79 81 80 194
4 78 192 80 82
4 192 193 80 82
4 269 193 192 82
4 193 192 80 185
4 80 79 194 185
4 77 74 75 79
4 85 96 76 74
4 96 243 242 99
4 98 102 103 100
4 104 105 106 230
4 214 218 230 177
4 50 175 51 54
4 49 155 223 48
4 157 156 236 159
4 236 119 159 156
4 235 119 164 136
4 236 119 164 235
4 133 235 120 123
4 120 235 133 119
4 135 123 235 133
4 124 173 123 126
4 173 172 126 154
4 166 171 154 172
4 172 171 154 173
4 171 16 154 173
4 171 166 154 153
4 16 171 154 153
4 124 173 16 133
4 124 173 133 123
4 25 133 119 121
4 19 16 133 21
4 163 19 133 21
4 134 19 133 136
4 133 119 136 163
4 133 19 163 136
4 132 20 18 19
4 20 132 234 19
4 20 19 163 21
4 22 20 21 18
4 16 22 21 18
4 128 129 127 21
4 160 129 21 127
4 160 21 25 127
4 25 20 21 23
4 25 27 23 160
4 25 27 30 26
4 23 22 21 160
4 16 129 21 22
4 128 130 165 270
4 128 130 270 129
4 128 130 16 165
4 16 165 153 154
4 17 16 14 153
4 131 17 18 14
4 17 141 153 15
4 12 10 15 153
4 15 17 14 153
4 153 16 14 130
4 16 129 22 130
4 128 130 129 16
4 16 128 165 154
4 151 166 153 165
4 260 145 7 151
4 9 6 252 7
4 7 262 252 149
4 260 259 7 251
4 7 259 147 251
4 264 259 271 149
4 259 7 147 149
4 146 148 147 149
4 271 259 147 149
4 148 271 147 149
4 146 142 143 141
4 144 141 140 139
4 141 134 140 139
4 143 141 144 139
4 142 145 141 146
4 145 142 141 144
4 148 142 143 146
4 145 7 10 146
4 145 150 151 153
4 151 272 150 7
4 151 272 273 150
4 151 272 4 273
4 4 272 2 273
4 151 272 7 4
4 4 260 7 151
4 166 145 151 153
4 166 145 169 151
4 171 166 153 145
4 133 16 140 173
4 124 16 21 133
4 25 21 160 23
4 21 129 160 22
4 121 21 124 127
4 121 120 133 119
4 123 121 125 120
4 123 121 120 133
4 25 133 121 21
4 25 20 163 21
4 118 24 28 161
4 26 28 161 32
4 40 115 28 31
4 115 52 113 112
4 246 112 109 52
4 246 52 109 54
4 56 54 109 55
4 56 107 55 248
4 58 60 59 57
4 63 61 65 104
4 68 72 70 67
4 182 75 73 74
4 77 79 75 80
4 196 79 185 194
4 79 78 185 80
4 77 78 82 84
4 83 77 82 84
4 77 74 84 76
4 96 74 93 72
4 103 66 93 68
4 65 66 69 63
4 63 61 104 213
4 61 60 104 213
4 59 227 226 228
4 274 110 227 225
4 246 36 247 37
4 246 36 35 52
4 52 115 40 31
4 28 31 38 40
4 44 42 158 45
4 120 44 122 158
4 135 133 140 173
4 171 16 173 140
4 171 144 153 140
4 141 144 140 153
4 10 141 15 153
4 10 12 15 13
4 10 8 12 13
4 8 10 12 11
4 8 9 11 255
4 9 253 149 252
4 257 262 149 252
4 262 259 149 7
4 258 7 4 260
4 259 258 7 262
4 262 0 7 252
4 0 6 7 252
4 254 6 252 255
4 0 3 6 252
4 6 3 254 252
4 272 6 11 7
4 4 6 272 7
4 4 6 2 272
4 9 6 11 255
4 9 253 252 255
4 262 264 257 149
4 257 264 275 271
4 259 264 262 149
4 257 264 271 149
4 9 146 7 149
4 10 7 11 9
4 7 12 10 11
4 145 150 153 12
4 12 145 10 153
4 145 146 10 141
4 145 142 147 146
4 171 145 153 144
4 171 142 145 144
4 142 171 145 167
4 142 145 147 167
4 167 145 147 251
4 145 260 7 251
4 145 150 12 7
4 12 145 7 10
4 12 152 153 14
4 152 153 14 130
4 152 151 153 165
4 165 152 276 270
4 152 151 165 276
4 165 152 270 130
4 152 151 276 150
4 276 150 151 273
4 272 7 11 150
4 7 12 11 150
4 153 150 152 12
4 165 16 153 130
4 165 152 130 153
4 15 12 153 14
4 13 131 14 15
4 17 131 15 14
4 17 132 18 19
4 25 24 163 20
4 25 24 118 163
4 119 156 164 118
4 118 117 45 156
4 155 45 117 156
4 113 40 117 155
4 50 49 224 48
4 49 50 224 51
4 50 237 224 51
4 237 50 175 51
4 52 54 220 174
4 52 247 220 54
4 39 247 220 52
4 39 247 52 36
4 115 52 35 31
4 40 115 52 113
4 40 115 113 117
4 115 112 113 114
4 53 52 51 54
4 54 53 109 55
4 52 53 109 54
4 110 246 109 54
4 247 110 54 246
4 247 110 274 225
4 246 274 37 247
4 247 110 246 274
4 110 225 54 57
4 57 217 226 219
4 57 217 218 230
4 219 218 54 57
4 218 54 174 220
4 46 39 52 40
4 39 31 52 40
4 38 42 45 40
4 28 38 44 45
4 121 25 44 119
4 123 135 173 133
4 134 153 140 16
4 134 16 140 133
4 137 135 134 140
4 134 153 141 140
4 134 153 16 17
4 16 17 19 134
4 134 153 17 141
4 153 145 10 141
4 6 9 11 7
4 258 7 0 4
4 1 0 2 5

CELL_TYPES 734
10
10
10
10
10
10
10
10
10
10
10
10
10
10
10
10
10
10
10
10
10
10
10
10
10
10
10
10
10
10
10
10
10
10
10
10
10
10
10
10
10
10
10
10
10
10
10
10
10
10
10
10
10
10
10
10
10
10
10
10
10
10
10
10
10
10
10
10
10
10
10
10
10
10
10
10
10
10
10
10
10
10
10
10
10
10
10
10
10
10
10
10
10
10
10
10
10
10
10
10
10
10
10
10
10
10
10
10
10
10
10
10
10
10
10
10
10
10
10
10
10
10
10
10
10
10
10
10
10
10
10
10
10
10
10
10
10
10
10
10
10
10
10
10
10
10
10
10
10
10
10
10
10
10
10
10
10
10
10
10
10
10
10
10
10
10
10
10
10
10
10
10
10
10
10
10
10
10
10
10
10
10
10
10
10
10
10
10
10
10
10
10
10
10
10
10
10
10
10
10
10
10
10
10
10
10
10
10
10
10
10
10
10
10
10
10
10
10
10
10
10
10
10
10
10
10
10
10
10
10
10
10
10
10
10
10
10
10
10
10
10
10
10
10
10
10
10
10
10
10
10
10
10
10
10
10
10
10
10
10
10
10
10
10
10
10
10
10
10
10
10
10
10
10
10
10
10
10
10
10
10
10
10
10
10
10
10
10
10
10
10
10
10
10
10
10
10
10
10
10
10
10
10
10
10
10
10
10
10
10
10
10
10
10
10
10
10
10
10
10
10
10
10
10
10
10
10
10
10
10
10
10
10
10
10
10
10
10
10
10
10
10
10
10
10
10
10
10
10
10
10
10
10
10
10
10
10
10
10
10
10
10
10
10
10
10
10
10
10
10
10
10
10
10
10
10
10
10
10
10
10
10
10
10
10
10
10
10
10
10
10
10
10
10
10
10
10
10
10
10
10
10
10
10
10
10
10
10
10
10
10
10
10
10
10
10
10
10
10
10
10
10
10
10
10
10
10
10
10
10
10
10
10
10
10
10
10
10
10
10
10
10
10
10
10
10
10
10
10
10
10
10
10
10
10
10
10
10
10
10
10
10
10
10
10
10
10
10
10
10
10
10
10
10
10
10
10
10
10
10
10
10
10
10
10
10
10
10
10
10
10
10
10
10
10
10
10
10
10
10
10
10
10
10
10
10
10
10
10
10
10
10
10
10
10
10
10
10
10
10
10
10
10
10
10
10
10
10
10
10
10
10
10
10
10
10
10
10
10
10
10
10
10
10
10
10
10
10
10
10
10
10
10
10
10
10
10
10
10
10
10
10
10
10
10
10
10
10
10
10
10
10
10
10
10
10
10
10
10
10
10
10
10
10
10
10
10
10
10
10
10
10
10
10
10
10
10
10
10
10
10
10
10
10
10
10
10
10
10
10
10
10
10
10
10
10
10
10
10
10
10
10
10
10
10
10
10
10
10
10
10
10
10
10
10
10
10
10
10
10
10
10
10
10
10
10
10
10
10
10
10
10
10
10
10
10
10
10
10
10
10
10
10
10
10
10
10
10
10
10
10
10
10
10
10
10
10
10
10
10
10
10
10
10
10
10
10
10
10
10
10
10
10
10
10
10
10
10
10
10
10
10
10
10
10
10
10
10
10
10
10
10
10
10
10
10
10
10
10
10
10
10
10
10
10
10
10
10
10
10
10
10
10
10

CELL_DATA 734
SCALARS potentialEnergy FLOAT 1
LOOKUP_TABLE default
157.729080
253.372696
248.529099
451.207489
540.280212
154.685303
31.875036
104.146095
216.720093
60.033569
65.098015
217.967331
33.346127
55.154171
70.101070
147.824615
185.427124
102.367149
125.301476
72.568680
167.376770
84.137291
97.411644
142.308868
62.430729
137.977066
193.429962
102.024361
198.314728
57.399330
66.778728
71.415318
71.587017
133.663971
202.092194
193.368515
195.408234
218.916016
27.787283
40.063824
70.765118
85.886139
213.587158
80.799530
144.013000
143.458984
150.412170
174.722198
63.808376
173.815125
291.752625
356.458832
191.358047
228.220322
281.530121
252.016129
220.949280
157.598251
187.894073
212.871140
72.691303
88.210144
154.755386
245.004608
58.220013
94.752785
103.475761
38.987623
131.888512
71.004326
51.056602
87.265465
151.662216
71.329964
43.950047
83.609680
115.653732
213.045624
166.775085
91.839737
75.544632
124.283966
51.996807
90.139214
74.458275
156.439133
164.134537
80.055313
133.847809
124.077797
79.580513
78.406174
70.326393
55.467648
112.106758
358.475220
173.522690
65.851070
121.205009
128.010880
248.179504
53.820137
52.586636
64.931488
41.809565
38.935642
57.813324
137.804367
192.873352
145.040421
62.908806
40.757891
16.714895
75.598770
201.972839
121.460800
152.851120
188.518311
82.417923
36.923342
31.832979
178.896667
313.358490
76.030952
161.346375
66.551563
92.176483
124.076859
75.069443
26.811543
130.414917
156.845703
31.672247
61.377716
48.689312
24.587409
50.792747
78.124016
73.001125
179.559036
139.240082
25.790946
127.111588
228.056244
156.039200
52.769943
140.589752
114.138290
242.164551
74.678459
257.090973
310.123383
96.049774
138.830612
100.939476
74.204933
18.129573
42.939892
176.405624
45.401733
22.026218
106.179237
54.192093
313.478455
22.325889
105.020447
91.803833
116.376564
152.388535
295.338135
82.057434
120.605728
215.502106
406.145660
118.208054
104.498360
79.744049
93.434669
245.430511
76.039757
161.250870
22.231311
159.369110
88.925583
196.435486
230.784271
156.468277
133.096649
395.957306
100.784149
156.730774
242.317520
93.770912
72.435516
172.780670
82.900894
52.327068
168.941483
44.326626
56.652096
132.458992
158.240341
59.020061
68.051514
161.326660
49.717205
123.622688
90.890060
128.117180
160.893143
164.165359
97.257835
32.893053
118.133591
110.102226
181.669189
97.603737
40.243193
83.321053
61.605503
91.443619
111.131638
59.229855
84.587074
62.912010
76.788536
133.083633
174.884277
538.713440
163.735565
137.983704
100.278969
125.771851
76.061333
42.545021
30.931570
338.594055
212.872894
42.870426
146.489166
86.720009
337.862030
227.503677
30.278469
34.198055
240.421677
157.008286
166.289444
202.110764
421.564819
119.370514
92.012047
116.138931
131.141113
72.160286
184.740601
112.260201
132.789787
98.386780
94.128517
92.184326
97.807007
109.643456
245.345978
198.022858
169.534622
241.295639
166.755966
359.856842
142.705368
398.017578
98.458939
126.972061
203.364288
124.026024
54.403843
222.043106
116.084114
61.124054
133.379517
83.665329
34.037949
50.396210
42.409908
21.055281
81.789909
88.593445
89.184937
119.745193
199.787521
214.494125
117.358902
54.478634
116.688652
69.445702
67.961361
50.041088
101.511597
210.953125
158.850006
106.530296
101.677155
46.094688
113.757942
116.505623
61.517311
95.119751
25.616434
66.690262
70.665443
240.574936
98.688683
106.291138
87.825813
192.375031
65.405994
60.050285
61.884342
114.114716
131.437439
92.338463
155.196808
42.239777
68.347759
174.686691
257.985840
265.490555
148.539322
167.890686
119.343407
104.426216
153.944321
79.394867
73.988960
65.867504
78.202469
113.374641
78.997055
30.708990
112.265129
70.900784
127.821266
168.873901
53.443897
141.745300
145.660477
154.999313
144.701981
50.963383
99.958870
68.256180
112.939270
132.998436
121.604843
95.163536
203.216370
301.148346
222.146881
116.072212
205.694382
109.764694
418.168396
151.917419
75.173355
96.709816
101.575806
39.141665
46.033764
158.108063
208.108673
152.440674
93.724892
91.853546
49.745667
49.860016
544.565918
287.648956
243.760223
396.372559
370.294189
748.373413
183.705170
192.813614
60.481426
57.351833
59.118637
35.130978
24.535324
258.317474
178.732147
176.313614
121.537247
54.752304
154.647736
47.908657
40.813349
39.887772
100.211342
115.869278
24.267580
103.352081
224.558487
386.927460
269.565002
443.062531
474.195618
452.038147
375.769104
115.979980
80.700630
100.656136
56.538059
118.343407
40.873857
67.986446
42.844944
86.374260
98.188942
244.877701
100.733665
397.892090
25.760678
102.238480
161.947876
64.363346
35.789900
224.300262
167.498672
337.096344
289.358856
307.758972
188.749588
70.994850
248.084091
477.494293
145.636658
376.269257
159.031845
200.178452
102.808258
215.856720
211.865234
467.434174
229.459290
295.759674
56.954342
48.501041
178.890518
11.596513
140.525757
62.256748
51.370525
67.999363
116.272903
181.209854
72.189693
73.893875
95.047562
198.746994
308.597565
225.565536
119.858398
140.970245
85.804436
84.270546
146.873413
33.655958
68.991009
108.175713
198.372070
253.157410
95.154991
87.733078
54.305611
52.094868
66.198677
72.014069
39.892853
192.064117
61.460567
179.792084
37.177990
91.639412
104.002335
42.553699
158.591156
278.739075
151.690384
140.701385
131.666069
100.812790
194.672455
274.827789
170.772202
266.684692
331.936584
192.226517
228.087219
144.968643
129.604973
107.089912
103.561745
138.979126
162.482727
82.164375
52.026829
34.983633
121.384872
116.730591
232.336777
54.549400
56.397102
55.124912
57.402718
97.273445
80.353455
30.079830
239.664078
201.021667
151.540634
185.517838
112.779892
91.624596
153.073914
51.645100
107.734024
68.351467
129.153053
38.967470
41.177242
94.042915
98.463356
88.344208
107.102356
56.497665
33.181812
79.012245
99.891350
47.678955
78.837029
44.067486
66.088680
53.740421
69.252533
65.958035
152.454941
49.576218
84.985046
20.237589
53.264843
64.278259
26.586882
162.430557
121.189568
51.488903
85.478355
107.658134
86.425705
657.204285
554.920593
155.386200
155.184509
393.963837
268.602173
70.705788
158.788040
123.401733
107.498795
24.667561
69.692238
46.924309
169.641632
60.059719
51.093586
139.396652
79.034187
90.829163
55.895367
68.042191
81.850334
109.033211
236.074936
167.431686
36.939474
52.066399
174.940079
81.350578
66.864738
134.398750
44.992760
118.779358
69.873314
75.079285
37.066036
68.309750
136.230293
97.267914
272.676117
209.932510
187.802505
58.815098
296.358887
83.542366
133.458321
245.105652
132.133423
153.752258
171.785538
81.409943
325.326599
104.900291
36.303671
165.078156
273.559692
330.068359
99.725372
133.835640
26.878099
35.571732
63.930817
17.249824
269.593018
44.173790
56.521023
221.794754
39.394871
91.077309
125.955269
40.185587
35.945393
18.066541
52.520214
60.389526
166.485977
167.781235
415.308746
486.835632
651.226440
484.514648
665.460999
324.556305
388.244995
317.849060
263.712723
254.555344
152.841904
224.047760
141.151367
159.495346
372.589447
496.277191
287.396942
503.831970
333.317657
288.602600
287.501801
89.665276
74.443611
54.758892
291.177856
62.326324
35.517862
39.484970
36.048836
177.095840
45.229961
49.475422
119.218086
71.915409
56.823208
165.227341
115.533363
95.431152
70.671738
94.292259
37.703938
115.966034
75.053963
76.116005
74.762398
73.365730
109.177780
36.207970
26.820734
125.030067
229.202957
97.237862
35.233278
84.549126
102.944412
125.001236
83.861107
93.508675
66.584797
98.460571
20.970989
47.489056
30.687656
118.237213
145.209717
99.555641
33.123608
25.134515
79.497269
110.010315
206.929733
113.523758
67.951736
65.968750
34.064865
69.086800
106.088654
90.141129
39.283947
38.571650
40.215879
233.759628
121.143463
90.839561
109.981743
60.045944
99.981064
82.006905
112.268074
62.630966
34.366648
38.043766
58.978188
59.062862
25.045788
52.166748
280.841949
498.580261
126.059349

