# vtk DataFile Version 3.1
Tetrahedral Mesh Visualization
ASCII
DATASET UNSTRUCTURED_GRID

POINTS 277 FLOAT
0.000000 1.378113 1.754166
0.000000 0.000000 0.000000
2.001161 -0.002225 0.003694
0.000000 1.666667 0.000000
2.422394 -0.001508 1.735325
0.000000 0.000000 1.666667
1.698252 2.461780 -0.001296
3.000623 2.453682 2.321314
4.015028 4.989828 -0.000194
3.076629 4.992742 1.632972
5.217484 5.000968 1.625031
3.503071 3.172099 0.003644
5.428854 3.306060 0.027589
6.028460 5.000658 0.036505
7.397188 3.338148 0.066828
6.984773 5.000819 1.376681
9.257144 2.172554 2.117233
8.709918 5.002987 1.702892
9.381504 3.333065 0.098062
10.671516 5.002331 1.775943
11.383248 3.342002 0.134629
11.127362 1.869422 1.677349
10.712718 1.674025 0.114272
12.715550 1.670718 0.174028
13.381975 3.336371 0.194473
12.990210 1.876668 1.673809
14.716068 1.666800 0.232604
14.044468 -0.000581 0.219210
15.487117 2.142509 1.937651
15.349583 -0.001272 1.908891
13.347579 0.000056 1.860832
17.311972 0.003863 1.900786
16.715000 1.658705 0.276774
18.053154 0.002861 0.313445
16.040295 -0.009284 0.268241
18.728443 1.672909 0.323598
19.034763 0.007488 1.651233
20.063803 0.014440 0.360492
16.724939 0.003474 3.578729
18.994589 -0.005523 3.435486
17.705439 2.689863 3.244824
17.937489 -0.002889 5.305911
16.629644 1.669732 5.270927
15.942530 0.008305 5.261232
14.667616 -0.001885 3.557839
15.763301 2.890516 3.602777
18.675377 1.690603 5.317767
17.264151 3.345147 5.284321
19.230902 3.386318 5.342340
19.308657 4.996162 3.665391
20.933638 3.683603 5.407963
21.306414 5.003213 3.752819
19.639606 2.496494 2.700860
20.688444 5.004559 2.055043
21.915855 2.517080 2.909813
22.681108 5.002749 2.118132
23.333368 3.383430 0.466553
23.973572 2.445922 2.784839
25.037893 3.666059 0.503159
25.042500 1.873224 0.507524
25.994474 2.487439 2.254283
27.294588 1.685954 0.527796
26.740141 3.378797 0.524420
29.282192 -0.010866 2.146296
28.031647 -0.011547 0.526729
29.336748 1.658819 0.530128
31.002556 -0.008284 1.846616
32.044315 -0.011154 0.537062
31.343178 1.646711 0.523327
30.027729 -0.008369 0.528419
33.313862 1.648167 0.543748
34.040871 -0.006968 0.563144
32.695015 0.005657 2.155062
34.602680 0.006821 2.261633
34.987213 2.413427 3.122318
36.511894 0.005771 2.437789
35.125454 0.006501 3.973639
36.812321 0.013769 4.164685
38.251461 2.542264 5.653401
37.693069 2.179520 2.824982
38.297901 0.012709 3.190916
38.040958 0.002324 0.665355
37.957668 0.019816 5.649755
35.963318 0.006710 5.601149
36.518032 1.760540 5.613700
34.894775 1.336987 5.586206
34.804840 3.134233 5.579203
36.711781 3.495045 5.616841
33.949944 4.991296 5.574373
32.647892 3.296705 5.542962
33.247097 5.002515 3.902146
31.954834 4.991363 5.538736
35.131374 5.008995 3.981395
32.200596 2.596402 2.963256
34.594078 5.001397 2.271918
32.663883 3.316653 0.539058
33.196209 0.005094 3.869167
30.978537 -0.007646 3.640054
31.277704 1.653087 5.533556
33.210495 1.603383 5.559038
30.625803 3.324398 5.529787
28.624105 3.329323 5.526166
29.293705 1.659838 5.531362
30.018196 2.487789 3.004060
27.958569 2.480588 3.015367
26.614578 3.326333 5.516504
27.284397 1.659246 5.524716
24.674274 4.992761 2.158878
22.062439 5.011488 0.429341
21.389956 3.352110 0.406713
22.782825 1.693186 0.455574
20.066799 5.000898 0.363625
19.391479 3.338126 0.337496
18.683836 4.995923 1.974810
18.051914 4.990377 0.292549
17.383921 3.325015 0.287603
16.052359 4.996547 0.252195
16.682741 4.998114 1.930692
14.681909 5.007799 1.887599
13.682246 2.961792 3.460726
12.943396 1.328884 5.169053
12.650389 -0.005421 3.502339
13.940761 0.007825 5.206533
11.231307 1.616949 5.123522
10.645366 -0.005691 3.442784
11.945253 -0.000994 5.149588
9.960858 -0.003987 5.100364
11.340317 0.003575 1.794636
9.317923 -0.000531 1.758556
10.034178 0.011058 0.102182
8.716425 1.665727 0.077971
8.043196 5.007010 0.080783
10.039562 5.000649 0.109038
11.207580 2.642924 3.404143
9.247949 4.998033 3.400059
10.705325 3.312563 5.115975
11.300602 5.000190 3.455426
9.971612 5.000107 5.111853
11.958425 5.013174 5.141432
7.972991 5.001808 5.069852
8.711608 3.389673 5.087353
6.956965 5.006247 3.161615
5.337313 3.377881 5.030707
5.974983 5.016994 5.026608
7.004801 3.689207 5.055942
5.138792 2.375241 3.165595
4.612954 4.999622 3.296576
3.476083 3.194739 5.005558
3.985096 5.009009 5.001555
2.368485 5.001816 3.268705
4.859913 1.610761 0.022435
4.912700 0.007609 1.900334
6.751726 1.666969 0.055488
7.018662 2.567206 2.251935
8.638258 -0.006032 3.418664
17.316128 5.005837 3.610662
15.318896 5.010482 3.564571
15.956125 5.016787 5.244361
14.658785 1.621019 5.221107
15.215071 3.317714 5.230404
12.043159 0.004164 0.151808
15.381690 3.331983 0.246783
14.052533 5.001039 0.203584
12.678563 5.009974 1.834250
13.313354 5.005563 3.514531
7.247660 0.005653 1.753543
6.657764 0.001834 3.434584
4.895238 1.654831 5.035549
5.974785 0.002194 5.050302
4.906172 0.007474 3.693725
3.985644 0.004246 5.021219
7.019864 1.894190 5.059546
7.965914 0.002057 5.073873
9.241541 1.688935 5.086273
20.929955 1.887917 5.393335
22.645479 3.398736 5.453764
23.950279 4.997260 5.476386
24.606396 3.334578 5.487860
23.306999 5.005079 3.801820
27.308401 4.992436 3.855406
26.668045 4.989344 2.186659
25.308241 4.992293 3.835681
35.198242 1.603360 0.588491
36.875725 1.452451 0.627047
39.975723 3.263801 4.318823
39.991661 1.640810 3.292798
38.297333 5.015371 3.193197
40.005173 3.259396 2.593460
39.980469 5.016235 4.017731
37.942104 5.032819 5.647806
39.941696 5.035794 5.683357
39.946915 3.364679 5.692677
39.954346 1.687660 5.696950
39.981609 0.015535 4.029333
40.014030 0.008285 2.367809
40.037781 0.010452 0.697034
40.038040 1.673095 0.692242
40.030064 3.343147 0.699776
38.342400 2.477363 0.655550
38.029137 5.015697 0.659938
40.009094 5.008219 2.355326
36.812290 5.016405 4.167808
36.511810 5.008101 2.436541
36.543446 3.177561 0.615993
36.030193 4.998366 0.606066
34.626850 3.302390 0.578193
34.027138 4.995483 0.565612
30.678661 3.310120 0.517813
30.018049 4.976383 0.520073
32.021473 4.981182 0.529971
30.656279 4.979231 2.186149
28.690424 3.329683 0.535332
26.709703 -0.012236 3.907758
27.280861 -0.014393 2.220066
25.262093 1.664330 5.503356
23.931705 0.005922 5.486305
25.955936 -0.010356 5.504237
24.966282 0.000262 4.184294
23.194056 1.702172 5.470280
23.248411 0.000331 3.854177
21.244347 -0.003976 3.715134
21.928545 -0.001161 5.426565
19.930048 -0.013360 5.353693
17.950014 5.005179 5.297024
19.929636 5.001443 5.360427
22.748365 -0.001119 2.146257
25.007074 -0.011300 2.400215
24.044815 -0.011291 0.490205
26.039244 -0.016376 0.523647
26.032269 4.985247 0.507686
25.682224 2.222763 4.004144
28.661375 4.990802 2.196419
28.024389 4.994451 0.530146
25.951519 4.985456 5.510589
12.048418 5.011651 0.156966
12.953522 3.120665 5.169126
13.956034 5.017045 5.193897
21.936674 5.004462 5.436530
28.724104 -0.010108 3.844990
29.307365 4.993045 3.857236
29.963512 4.998874 5.524826
31.288876 4.994557 3.861933
31.971502 -0.001564 5.541598
33.967159 -0.001578 5.570178
35.948006 5.008225 5.604201
32.638737 4.993568 2.211405
20.749033 1.680687 0.383224
20.750982 0.005235 2.000195
24.044764 4.989802 0.474025
27.964224 4.998410 5.516869
40.037785 4.997533 0.685077
3.177089 1.470273 5.006151
0.000000 3.103853 1.750106
0.000000 5.000000 1.666667
0.000000 3.333333 0.000000
2.000152 4.990210 -0.009572
0.000000 5.000000 0.000000
0.000000 5.000000 3.333333
0.000000 0.000000 3.333333
1.694208 2.471297 4.998628
3.038017 0.003563 3.392999
1.998828 0.000296 5.000907
0.000000 2.403264 3.370902
0.000000 1.666667 5.000000
0.000000 3.333333 5.000000
0.000000 0.000000 5.000000
27.971737 -0.001623 5.531941
29.978613 -0.005642 5.529464
36.037777 -0.006915 0.609981
39.953186 0.020782 5.698736
8.023129 0.007090 0.070987
1.996646 4.998589 4.995559
3.173820 1.451634 0.008083
4.014904 0.006105 0.013464
22.059383 -0.006681 0.426757
0.000000 5.000000 5.000000
6.024060 0.019063 0.037101

CELLS 734 3670
4 0 1 2 3
4 0 4 2 5
4 0 3 2 6
4 4 6 0 2
4 4 6 7 0
4 8 9 10 11
4 12 13 14 15
4 16 17 14 18
4 19 20 18 21
4 20 22 21 23
4 24 25 26 23
4 25 27 26 23
4 26 28 29 30
4 28 29 31 32
4 33 34 32 31
4 31 33 35 32
4 31 33 36 35
4 33 37 36 35
4 38 39 40 31
4 41 42 43 38
4 44 42 45 38
4 44 42 38 43
4 46 38 42 41
4 46 47 40 48
4 49 50 51 52
4 53 54 51 55
4 56 54 55 57
4 56 58 59 57
4 60 59 61 62
4 63 61 64 65
4 66 67 68 69
4 67 70 71 72
4 73 74 75 76
4 74 77 75 76
4 77 78 79 80
4 79 81 75 80
4 77 78 80 82
4 77 83 76 84
4 83 85 76 84
4 85 86 74 84
4 74 86 87 84
4 88 89 86 90
4 91 89 88 90
4 86 88 90 92
4 90 86 92 74
4 86 89 74 90
4 93 94 95 74
4 70 74 72 93
4 70 73 71 72
4 74 96 73 72
4 66 97 93 72
4 96 97 72 93
4 96 98 97 93
4 85 96 74 99
4 96 98 93 99
4 98 89 100 93
4 101 102 100 103
4 104 105 101 106
4 107 58 57 60
4 58 107 57 56
4 53 108 109 55
4 56 110 109 54
4 53 111 109 108
4 112 53 109 52
4 111 112 113 53
4 112 111 113 114
4 115 116 114 117
4 40 28 115 117
4 45 117 118 28
4 119 28 25 44
4 120 44 121 122
4 123 121 124 125
4 125 123 126 124
4 127 128 21 124
4 16 129 128 21
4 16 18 14 130
4 16 17 18 19
4 131 17 132 18
4 16 19 18 21
4 133 16 19 134
4 135 134 133 136
4 135 137 136 138
4 137 134 139 140
4 141 142 143 144
4 145 146 147 7
4 142 148 147 146
4 7 146 147 149
4 10 7 9 146
4 145 150 7 151
4 152 151 150 153
4 16 128 154 124
4 124 21 121 133
4 25 28 30 44
4 28 38 45 40
4 45 47 40 42
4 155 45 156 47
4 157 156 47 155
4 155 45 40 117
4 45 42 158 159
4 44 42 43 158
4 119 45 158 159
4 120 44 158 119
4 25 127 21 121
4 25 27 160 30
4 127 25 160 30
4 25 127 121 30
4 44 25 121 30
4 28 30 44 29
4 119 28 44 45
4 119 28 118 25
4 28 24 26 161
4 26 32 29 28
4 28 31 29 38
4 46 38 41 39
4 46 38 39 40
4 28 117 40 45
4 118 28 117 161
4 162 24 118 161
4 118 119 163 164
4 136 119 164 163
4 25 133 21 163
4 128 16 21 124
4 165 166 153 154
4 166 167 168 169
4 167 168 169 170
4 171 168 172 166
4 124 173 126 154
4 123 121 133 124
4 120 125 122 121
4 122 158 44 43
4 47 46 40 42
4 52 50 174 48
4 175 50 174 54
4 176 175 177 178
4 179 60 180 181
4 64 69 63 65
4 68 72 67 66
4 70 73 182 71
4 74 79 183 75
4 184 78 185 79
4 79 184 186 187
4 186 184 188 187
4 184 189 190 191
4 184 78 79 186
4 78 189 184 191
4 189 184 190 188
4 184 78 191 192
4 184 78 192 185
4 192 78 80 185
4 193 80 194 185
4 195 81 196 194
4 81 79 196 194
4 197 187 196 198
4 187 79 185 196
4 79 184 187 185
4 197 199 187 198
4 199 197 187 200
4 199 200 187 186
4 78 201 79 186
4 189 201 87 78
4 202 201 79 74
4 201 74 92 87
4 201 202 92 74
4 201 202 79 186
4 202 203 74 79
4 202 198 203 79
4 204 202 199 203
4 202 203 205 74
4 202 204 205 203
4 182 203 74 205
4 74 203 183 79
4 79 203 183 198
4 79 81 198 183
4 81 79 198 196
4 187 79 196 198
4 202 198 79 186
4 202 204 94 205
4 94 95 205 206
4 207 208 209 210
4 208 207 211 210
4 104 103 211 65
4 104 60 212 213
4 214 215 216 217
4 218 219 220 221
4 222 174 220 221
4 46 39 222 174
4 52 46 40 48
4 40 49 52 48
4 53 49 52 113
4 40 49 155 113
4 155 45 47 40
4 157 47 223 155
4 49 223 224 48
4 52 50 51 54
4 175 54 57 178
4 218 175 54 57
4 225 219 54 57
4 218 175 57 177
4 57 217 219 218
4 219 225 226 57
4 225 227 226 57
4 59 110 57 227
4 59 60 61 228
4 61 60 213 228
4 64 61 213 228
4 63 61 213 64
4 61 104 211 65
4 180 60 104 62
4 58 229 62 180
4 58 60 180 62
4 60 61 104 62
4 60 226 230 212
4 226 60 213 212
4 60 104 212 230
4 179 60 230 104
4 104 211 231 62
4 180 229 62 232
4 180 232 62 231
4 179 60 104 180
4 233 181 105 179
4 181 105 179 230
4 105 214 106 230
4 105 214 230 177
4 215 214 218 217
4 215 217 218 219
4 218 215 219 221
4 218 175 174 54
4 39 52 220 174
4 39 46 52 174
4 115 52 112 35
4 28 115 117 161
4 162 118 116 161
4 24 162 118 163
4 20 19 234 163
4 25 133 163 119
4 120 119 158 235
4 236 119 235 159
4 235 119 158 159
4 119 235 133 136
4 138 235 236 164
4 45 47 42 159
4 46 38 40 42
4 49 50 52 48
4 237 175 176 178
4 181 233 177 176
4 180 179 231 104
4 207 103 65 211
4 207 103 68 65
4 65 66 103 68
4 103 66 97 93
4 66 103 97 63
4 213 104 63 238
4 238 97 103 63
4 104 102 103 238
4 104 106 212 230
4 214 212 106 230
4 214 212 216 106
4 214 212 217 216
4 214 212 230 217
4 226 217 230 212
4 226 60 230 57
4 181 60 57 230
4 179 105 104 230
4 179 105 101 104
4 104 239 103 101
4 239 101 240 100
4 91 241 240 100
4 241 239 240 100
4 239 241 103 100
4 103 210 93 241
4 103 207 93 210
4 210 103 231 239
4 103 239 104 231
4 103 104 63 65
4 65 66 63 103
4 65 66 68 69
4 68 72 66 93
4 96 98 242 97
4 85 96 99 243
4 85 86 99 74
4 86 89 99 74
4 88 86 244 92
4 74 86 92 87
4 201 244 87 92
4 244 86 87 92
4 90 74 92 94
4 94 95 206 245
4 95 209 206 245
4 245 207 95 209
4 208 232 231 211
4 180 104 231 62
4 181 60 107 57
4 54 175 51 178
4 50 52 174 54
4 246 36 52 247
4 246 36 37 35
4 52 31 36 35
4 31 39 52 36
4 39 46 222 41
4 39 222 174 220
4 174 218 220 221
4 218 219 54 220
4 225 219 220 54
4 56 110 54 57
4 110 56 59 57
4 60 59 226 228
4 60 226 213 228
4 57 217 230 226
4 214 217 230 218
4 218 57 230 177
4 181 105 230 177
4 179 60 181 230
4 58 107 180 60
4 229 107 58 248
4 229 107 180 58
4 60 58 59 62
4 58 107 56 248
4 108 56 109 55
4 108 56 55 248
4 107 56 55 57
4 107 181 57 178
4 57 181 177 178
4 181 176 177 178
4 233 181 177 105
4 249 239 101 240
4 91 89 241 100
4 89 91 241 90
4 210 245 93 241
4 245 241 90 93
4 93 94 90 245
4 74 202 92 94
4 205 204 94 206
4 202 198 199 203
4 202 198 186 199
4 199 197 200 250
4 199 186 187 198
4 200 186 188 187
4 184 189 186 188
4 201 189 87 244
4 189 201 78 186
4 201 78 79 87
4 189 78 184 186
4 186 79 187 198
4 74 201 79 87
4 74 79 84 87
4 79 78 84 87
4 77 78 84 79
4 74 77 84 79
4 74 85 84 76
4 83 243 76 85
4 85 96 243 76
4 73 96 74 76
4 96 93 74 99
4 89 93 99 74
4 93 94 74 90
4 93 94 245 95
4 207 95 68 93
4 95 70 68 93
4 95 70 74 205
4 74 70 182 205
4 94 95 74 205
4 241 89 90 93
4 104 179 231 239
4 181 60 180 107
4 107 57 55 178
4 57 54 55 178
4 53 49 51 52
4 40 49 113 52
4 155 47 223 48
4 45 47 159 156
4 119 156 45 159
4 120 44 119 121
4 16 173 124 154
4 166 167 169 145
4 145 7 147 251
4 9 7 252 149
4 253 254 252 255
4 256 253 255 254
4 6 9 252 255
4 253 257 149 252
4 7 258 259 260
4 260 261 251 170
4 169 260 251 170
4 169 251 167 170
4 166 167 145 171
4 16 22 18 130
4 25 24 20 23
4 24 25 118 28
4 119 156 118 45
4 119 28 45 118
4 119 45 44 158
4 44 38 28 29
4 25 28 26 30
4 25 24 26 28
4 24 20 234 163
4 162 24 234 163
4 163 119 118 25
4 235 135 133 136
4 135 134 140 133
4 145 141 153 144
4 145 260 169 151
4 0 258 4 5
4 259 258 262 263
4 264 259 262 263
4 258 7 262 0
4 260 258 259 261
4 258 261 263 259
4 261 258 263 265
4 261 260 251 259
4 167 251 169 145
4 145 260 251 169
4 166 167 171 168
4 16 171 153 140
4 137 135 136 134
4 138 135 235 136
4 235 138 136 164
4 236 119 156 164
4 157 156 159 47
4 155 47 48 40
4 40 49 48 155
4 46 52 174 48
4 247 225 220 54
4 110 225 57 227
4 60 59 57 226
4 104 61 211 62
4 232 211 62 231
4 103 104 211 231
4 239 210 103 241
4 241 93 103 100
4 68 72 93 70
4 103 207 68 93
4 207 103 211 210
4 210 208 231 211
4 103 210 231 211
4 245 207 210 93
4 245 207 209 210
4 245 207 93 95
4 70 95 74 93
4 70 73 74 182
4 182 203 183 74
4 202 74 205 94
4 93 89 90 74
4 89 241 100 93
4 93 98 103 100
4 101 104 102 103
4 104 101 102 106
4 106 238 104 212
4 266 216 212 106
4 106 238 212 266
4 106 238 102 104
4 267 266 238 102
4 97 102 267 238
4 106 238 266 102
4 97 102 238 103
4 97 102 103 98
4 97 102 98 267
4 97 98 242 267
4 96 98 99 242
4 89 98 99 93
4 239 101 100 103
4 104 179 239 101
4 179 249 239 101
4 105 179 101 249
4 233 105 249 179
4 177 181 57 230
4 175 57 177 178
4 175 237 51 178
4 55 54 51 178
4 112 111 109 53
4 112 53 52 113
4 117 115 113 114
4 116 118 117 161
4 115 116 117 161
4 28 115 161 32
4 29 32 26 34
4 26 30 29 27
4 34 26 29 27
4 29 34 31 32
4 31 115 32 35
4 31 115 28 32
4 246 112 52 35
4 246 247 52 54
4 247 110 225 54
4 59 227 57 226
4 213 104 238 212
4 104 103 63 238
4 97 98 103 93
4 70 73 72 74
4 71 182 268 73
4 182 75 268 73
4 182 75 183 268
4 183 81 268 75
4 182 75 74 183
4 79 81 183 75
4 79 81 80 194
4 78 192 80 82
4 192 193 80 82
4 269 193 192 82
4 193 192 80 185
4 80 79 194 185
4 77 74 75 79
4 85 96 76 74
4 96 243 242 99
4 98 102 103 100
4 104 105 106 230
4 214 218 230 177
4 50 175 51 54
4 49 155 223 48
4 157 156 236 159
4 236 119 159 156
4 235 119 164 136
4 236 119 164 235
4 133 235 120 123
4 120 235 133 119
4 135 123 235 133
4 124 173 123 126
4 173 172 126 154
4 166 171 154 172
4 172 171 154 173
4 171 16 154 173
4 171 166 154 153
4 16 171 154 153
4 124 173 16 133
4 124 173 133 123
4 25 133 119 121
4 19 16 133 21
4 163 19 133 21
4 134 19 133 136
4 133 119 136 163
4 133 19 163 136
4 132 20 18 19
4 20 132 234 19
4 20 19 163 21
4 22 20 21 18
4 16 22 21 18
4 128 129 127 21
4 160 129 21 127
4 160 21 25 127
4 25 20 21 23
4 25 27 23 160
4 25 27 30 26
4 23 22 21 160
4 16 129 21 22
4 128 130 165 270
4 128 130 270 129
4 128 130 16 165
4 16 165 153 154
4 17 16 14 153
4 131 17 18 14
4 17 141 153 15
4 12 10 15 153
4 15 17 14 153
4 153 16 14 130
4 16 129 22 130
4 128 130 129 16
4 16 128 165 154
4 151 166 153 165
4 260 145 7 151
4 9 6 252 7
4 7 262 252 149
4 260 259 7 251
4 7 259 147 251
4 264 259 271 149
4 259 7 147 149
4 146 148 147 149
4 271 259 147 149
4 148 271 147 149
4 146 142 143 141
4 144 141 140 139
4 141 134 140 139
4 143 141 144 139
4 142 145 141 146
4 145 142 141 144
4 148 142 143 146
4 145 7 10 146
4 145 150 151 153
4 151 272 150 7
4 151 272 273 150
4 151 272 4 273
4 4 272 2 273
4 151 272 7 4
4 4 260 7 151
4 166 145 151 153
4 166 145 169 151
4 171 166 153 145
4 133 16 140 173
4 124 16 21 133
4 25 21 160 23
4 21 129 160 22
4 121 21 124 127
4 121 120 133 119
4 123 121 125 120
4 123 121 120 133
4 25 133 121 21
4 25 20 163 21
4 118 24 28 161
4 26 28 161 32
4 40 115 28 31
4 115 52 113 112
4 246 112 109 52
4 246 52 109 54
4 56 54 109 55
4 56 107 55 248
4 58 60 59 57
4 63 61 65 104
4 68 72 70 67
4 182 75 73 74
4 77 79 75 80
4 196 79 185 194
4 79 78 185 80
4 77 78 82 84
4 83 77 82 84
4 77 74 84 76
4 96 74 93 72
4 103 66 93 68
4 65 66 69 63
4 63 61 104 213
4 61 60 104 213
4 59 227 226 228
4 274 110 227 225
4 246 36 247 37
4 246 36 35 52
4 52 115 40 31
4 28 31 38 40
4 44 42 158 45
4 120 44 122 158
4 135 133 140 173
4 171 16 173 140
4 171 144 153 140
4 141 144 140 153
4 10 141 15 153
4 10 12 15 13
4 10 8 12 13
4 8 10 12 11
4 8 9 11 255
4 9 253 149 252
4 257 262 149 252
4 262 259 149 7
4 258 7 4 260
4 259 258 7 262
4 262 0 7 252
4 0 6 7 252
4 254 6 252 255
4 0 3 6 252
4 6 3 254 252
4 272 6 11 7
4 4 6 272 7
4 4 6 2 272
4 9 6 11 255
4 9 253 252 255
4 262 264 257 149
4 257 264 275 271
4 259 264 262 149
4 257 264 271 149
4 9 146 7 149
4 10 7 11 9
4 7 12 10 11
4 145 150 153 12
4 12 145 10 153
4 145 146 10 141
4 145 142 147 146
4 171 145 153 144
4 171 142 145 144
4 142 171 145 167
4 142 145 147 167
4 167 145 147 251
4 145 260 7 251
4 145 150 12 7
4 12 145 7 10
4 12 152 153 14
4 152 153 14 130
4 152 151 153 165
4 165 152 276 270
4 152 151 165 276
4 165 152 270 130
4 152 151 276 150
4 276 150 151 273
4 272 7 11 150
4 7 12 11 150
4 153 150 152 12
4 165 16 153 130
4 165 152 130 153
4 15 12 153 14
4 13 131 14 15
4 17 131 15 14
4 17 132 18 19
4 25 24 163 20
4 25 24 118 163
4 119 156 164 118
4 118 117 45 156
4 155 45 117 156
4 113 40 117 155
4 50 49 224 48
4 49 50 224 51
4 50 237 224 51
4 237 50 175 51
4 52 54 220 174
4 52 247 220 54
4 39 247 220 52
4 39 247 52 36
4 115 52 35 31
4 40 115 52 113
4 40 115 113 117
4 115 112 113 114
4 53 52 51 54
4 54 53 109 55
4 52 53 109 54
4 110 246 109 54
4 247 110 54 246
4 247 110 274 225
4 246 274 37 247
4 247 110 246 274
4 110 225 54 57
4 57 217 226 219
4 57 217 218 230
4 219 218 54 57
4 218 54 174 220
4 46 39 52 40
4 39 31 52 40
4 38 42 45 40
4 28 38 44 45
4 121 25 44 119
4 123 135 173 133
4 134 153 140 16
4 134 16 140 133
4 137 135 134 140
4 134 153 141 140
4 134 153 16 17
4 16 17 19 134
4 134 153 17 141
4 153 145 10 141
4 6 9 11 7
4 258 7 0 4
4 1 0 2 5

CELL_TYPES 734
10
10
10
10
10
10
10
10
10
10
10
10
10
10
10
10
10
10
10
10
10
10
10
10
10
10
10
10
10
10
10
10
10
10
10
10
10
10
10
10
10
10
10
10
10
10
10
10
10
10
10
10
10
10
10
10
10
10
10
10
10
10
10
10
10
10
10
10
10
10
10
10
10
10
10
10
10
10
10
10
10
10
10
10
10
10
10
10
10
10
10
10
10
10
10
10
10
10
10
10
10
10
10
10
10
10
10
10
10
10
10
10
10
10
10
10
10
10
10
10
10
10
10
10
10
10
10
10
10
10
10
10
10
10
10
10
10
10
10
10
10
10
10
10
10
10
10
10
10
10
10
10
10
10
10
10
10
10
10
10
10
10
10
10
10
10
10
10
10
10
10
10
10
10
10
10
10
10
10
10
10
10
10
10
10
10
10
10
10
10
10
10
10
10
10
10
10
10
10
10
10
10
10
10
10
10
10
10
10
10
10
10
10
10
10
10
10
10
10
10
10
10
10
10
10
10
10
10
10
10
10
10
10
10
10
10
10
10
10
10
10
10
10
10
10
10
10
10
10
10
10
10
10
10
10
10
10
10
10
10
10
10
10
10
10
10
10
10
10
10
10
10
10
10
10
10
10
10
10
10
10
10
10
10
10
10
10
10
10
10
10
10
10
10
10
10
10
10
10
10
10
10
10
10
10
10
10
10
10
10
10
10
10
10
10
10
10
10
10
10
10
10
10
10
10
10
10
10
10
10
10
10
10
10
10
10
10
10
10
10
10
10
10
10
10
10
10
10
10
10
10
10
10
10
10
10
10
10
10
10
10
10
10
10
10
10
10
10
10
10
10
10
10
10
10
10
10
10
10
10
10
10
10
10
10
10
10
10
10
10
10
10
10
10
10
10
10
10
10
10
10
10
10
10
10
10
10
10
10
10
10
10
10
10
10
10
10
10
10
10
10
10
10
10
10
10
10
10
10
10
10
10
10
10
10
10
10
10
10
10
10
10
10
10
10
10
10
10
10
10
10
10
10
10
10
10
10
10
10
10
10
10
10
10
10
10
10
10
10
10
10
10
10
10
10
10
10
10
10
10
10
10
10
10
10
10
10
10
10
10
10
10
10
10
10
10
10
10
10
10
10
10
10
10
10
10
10
10
10
10
10
10
10
10
10
10
10
10
10
10
10
10
10
10
10
10
10
10
10
10
10
10
10
10
10
10
10
10
10
10
10
10
10
10
10
10
10
10
10
10
10
10
10
10
10
10
10
10
10
10
10
10
10
10
10
10
10
10
10
10
10
10
10
10
10
10
10
10
10
10
10
10
10
10
10
10
10
10
10
10
10
10
10
10
10
10
10
10
10
10
10
10
10
10
10
10
10
10
10
10
10
10
10
10
10
10
10
10
10
10
10
10
10
10
10
10
10
10
10
10
10
10
10
10
10
10
10
10
10
10
10
10
10
10
10
10
10
10
10
10
10
10
10
10
10
10
10
10
10
10
10
10
10
10
10
10
10
10
10
10
10
10
10
10
10
10
10
10
10
10
10
10
10
10
10
10
10
10
10
10
10
10
10
10
10
10
10
10
10
10
10
10
10
10
10
10
10
10
10
10
10
10
10
10
10
10
10
10
10
10
10
10
10
10
10
10
10
10
10
10
10
10
10
10

CELL_DATA 734
SCALARS potentialEnergy FLOAT 1
LOOKUP_TABLE default
22.352672
39.457891
30.508825
110.566574
25.925684
67.354511
102.496414
67.838551
130.501411
159.952011
74.930984
126.580704
97.202911
69.873516
169.602997
115.610260
49.341480
95.153633
35.234322
49.003460
243.677505
65.868038
51.551144
81.826874
388.297180
206.251495
179.135284
75.711197
121.457840
60.761829
174.607559
66.792023
80.113647
97.775330
127.846672
174.401917
114.649979
68.077190
38.555838
94.538681
83.328224
97.664673
76.833725
103.184959
30.212734
34.632952
91.854630
180.710236
47.506111
64.898785
57.308453
120.369667
70.703194
34.744432
81.566269
126.841217
185.183563
180.544067
71.821117
99.473831
87.992218
303.518005
141.645920
314.909088
255.312546
311.929565
19.595142
84.516769
52.573746
196.462479
65.236992
70.580196
161.738220
81.196678
60.365353
42.266132
126.908012
16.816471
121.063568
69.939987
52.162014
224.310043
58.780010
90.915558
159.475784
107.801292
97.065346
81.589325
140.612335
277.353333
38.112860
221.082016
96.429520
70.605843
18.512687
46.448570
38.729231
23.785995
44.377789
37.684229
63.897934
97.081215
129.473389
167.314560
164.582626
168.113525
126.149689
84.616035
133.279312
208.100616
104.614204
31.456953
35.643337
71.863987
79.336288
57.728317
111.870232
51.521564
56.213600
121.316772
247.192184
59.244045
44.523399
47.358955
68.219418
80.433571
74.494255
220.536316
61.466114
33.866835
66.075684
216.436859
155.890518
34.977339
82.090538
69.314796
49.957474
106.604462
95.719780
124.514023
130.628029
59.208519
37.366480
170.478241
139.128937
51.140102
91.067665
131.713562
87.332611
45.564571
93.920654
97.793015
107.854988
81.975044
80.117371
146.582962
83.703117
82.704460
171.735809
84.050552
67.117096
46.728073
65.559856
154.095444
120.819717
175.383026
164.584183
82.026367
44.067596
66.221508
55.423023
54.599464
99.604614
87.167740
104.738335
191.556366
58.420086
144.041595
41.068373
242.592804
188.486816
152.554535
338.540741
62.307556
98.451523
140.266800
95.692268
121.946602
184.446030
96.975159
48.094776
54.279949
230.211823
287.294952
52.077927
25.261209
29.708548
88.772369
69.323853
54.245010
67.543659
67.258656
142.250763
58.302998
81.523293
77.008026
148.772964
86.600983
78.412682
69.595028
55.396088
124.749825
147.619614
117.437737
126.713860
104.090790
59.720833
80.771866
69.117443
112.358307
84.989616
129.531563
104.687050
140.770111
27.908398
64.976852
175.000824
154.284439
161.602417
99.248573
51.805187
58.413586
60.611919
117.800392
406.200104
80.017845
97.306267
173.345886
147.266220
110.246887
67.769650
132.263725
339.107788
124.244286
20.879007
164.554047
461.342712
271.547516
301.825714
125.168816
201.247986
172.347702
214.622147
355.474823
111.543655
195.907715
144.784454
223.117279
231.939682
424.793335
38.625715
69.087147
152.559174
407.339966
402.316071
66.850803
107.422958
79.608116
258.551834
200.708649
173.285049
393.373749
242.099930
224.178024
190.990189
142.172668
114.776054
23.979612
29.107763
149.072021
72.217445
35.842871
53.306240
25.766362
22.071918
30.308975
37.047905
92.663376
69.693748
272.527374
109.986511
71.383945
40.108818
290.644379
123.529800
66.639896
62.903236
83.121361
87.649208
121.908699
44.323074
105.398262
156.224228
93.301453
96.098236
49.951897
163.018997
117.679962
191.142502
130.028099
239.256058
112.924843
53.708096
97.981522
59.882618
52.799858
34.238924
132.046127
182.714401
114.993279
83.987038
145.679382
42.815933
125.784157
47.919518
95.579765
51.281708
87.595123
89.048973
29.004194
43.803204
41.675882
196.034180
268.671326
144.037354
173.323502
45.142372
80.864540
57.190395
147.402283
141.585800
173.210983
160.135895
57.536625
30.640387
63.553841
111.472572
46.040115
85.553436
95.768669
30.691904
42.809681
97.006035
57.871826
49.993984
77.361877
43.676163
104.314980
98.195274
111.078148
71.214100
29.633570
210.769180
85.047226
77.352608
39.965204
206.598923
96.238052
58.198627
44.577042
170.441864
128.501595
24.601291
173.598801
93.378006
31.140066
39.699808
35.005077
53.850063
35.620806
26.403717
122.370155
72.076576
91.738937
178.839920
98.769096
83.414825
231.581009
200.637665
168.210800
87.094048
93.534760
106.484825
101.956299
153.312637
90.126427
132.808434
225.865051
130.801323
68.920120
116.995186
24.594178
257.271576
180.279587
21.013375
17.972606
40.724607
19.407482
23.425317
204.419342
181.491028
123.234085
78.118469
62.431999
178.943741
158.812988
87.986015
52.291512
109.780365
148.712860
170.931900
168.114441
68.794830
38.227877
57.067444
75.257858
333.430969
237.820709
217.681000
133.157692
160.674896
499.052551
203.583237
452.770752
103.941223
64.184021
78.135155
128.790802
81.155434
55.519680
86.778183
58.765079
147.369858
148.199951
298.907349
303.455048
170.257858
150.904755
76.691605
253.902390
162.642670
132.992393
90.945763
332.952667
252.897141
96.463997
70.032497
34.315924
86.682571
251.931076
247.448776
106.964462
127.204605
191.903610
110.044388
170.416641
19.239364
21.938492
149.685867
530.910706
67.568356
26.820930
23.877329
70.468502
47.629890
101.962334
63.117020
76.750587
95.215103
49.898186
181.064682
328.448242
388.204559
63.182564
158.120209
242.685822
227.254959
124.941261
65.687981
43.064247
55.803356
67.629051
60.862186
187.094788
107.710350
153.864899
79.738518
51.785889
63.689884
36.900293
131.329826
45.686619
35.984301
185.429916
157.932877
189.434631
30.325344
73.637283
47.648270
81.443619
74.603409
64.731499
126.150116
132.893211
174.964447
90.357124
42.617661
32.444376
32.920732
51.680119
83.520065
65.190674
44.419907
144.088028
262.601959
88.045570
154.209946
58.261024
157.560028
178.118103
81.588623
105.980751
213.697327
106.486061
43.958786
123.774399
121.996155
133.084900
104.932625
126.565552
56.053963
159.775391
109.553078
54.439018
124.221542
37.898623
33.988525
38.617956
38.405857
114.411789
159.611145
180.429550
101.422173
154.893585
101.939934
43.240273
135.456352
110.325546
84.600380
31.340563
49.333199
76.948395
53.571091
84.568367
62.516903
126.466949
112.517769
106.865723
65.845108
130.691544
115.913483
196.527786
61.048603
92.851837
79.494423
161.786636
146.060226
125.701675
65.078682
123.370705
151.377228
116.230545
74.575630
109.594040
68.218487
119.773849
94.930550
109.891762
172.629715
134.805840
140.373993
131.450066
156.298477
194.123260
351.743256
144.511642
35.515316
87.880058
196.536026
162.164734
306.708282
356.260406
52.186310
83.396027
189.284454
79.673912
86.860718
119.841362
99.122917
109.858322
89.797058
98.498268
91.880524
66.864368
264.928085
77.581581
160.865250
46.534409
66.478634
207.030548
56.796913
152.683838
127.053978
53.497345
57.387501
36.330624
46.407295
101.414398
51.296368
159.114471
82.939354
67.789917
155.280624
127.171043
142.120361
57.144035
43.908150
64.949352
29.421085
38.565907
17.999599
59.321198
78.701561
263.529709
254.378922
73.551289
100.285889
228.824783
122.496445
81.244476
44.579559
88.969681
60.285904
48.022961
117.189522
118.845139
204.858765
150.230728
133.309311
115.574959
391.159607
43.887466
51.191547
126.875549
102.128151
135.097992
122.552849
134.502167
85.138412
205.810822
26.156960
147.027008
56.649273
88.511162
35.297167
282.468170
116.321541
133.983696
180.333130
189.870605
55.773609
173.052826
286.007050
136.656685
136.938347
53.993412
228.244019
144.659775
69.344170
38.419273
43.414059
18.266289
95.311089
122.451729
137.315292
38.945093
259.106644
266.686310
194.813370
193.355606
203.205017
99.322281
46.942810
103.738419
155.919876
311.691986
552.181763
425.188507
485.711914
174.286499
109.207077
244.696198
73.022476
80.148468
174.088348
48.265308
150.260147
51.089592
101.065010
34.251549
100.295059
226.417999
132.289383
65.843239
104.783325
59.436146
152.026443
49.039700
44.077991
138.634644
116.557442
157.827805
18.777064
19.704542

