# vtk DataFile Version 3.1
Tetrahedral Mesh Visualization
ASCII
DATASET UNSTRUCTURED_GRID

POINTS 277 FLOAT
0.000000 1.378113 1.754166
0.000000 0.000000 0.000000
2.002264 -0.001628 0.009431
0.000000 1.666667 0.000000
2.424193 -0.000352 1.742018
0.000000 0.000000 1.666667
1.698804 2.460771 0.004331
2.997417 2.451912 2.335011
4.008554 4.986826 0.020999
3.073584 4.992268 1.656499
5.215168 5.000309 1.640413
3.502724 3.169225 0.022021
5.427706 3.300452 0.039278
6.020154 4.993395 0.045078
7.395593 3.326985 0.076106
6.977580 4.994311 1.384954
9.257895 2.170629 2.125597
8.700580 4.993184 1.708655
9.383889 3.330498 0.105486
10.668805 4.996454 1.784205
11.384244 3.335854 0.139263
11.130105 1.861782 1.684029
10.718581 1.668302 0.122161
12.718600 1.665080 0.165209
13.383265 3.331833 0.182475
12.992131 1.869020 1.663277
14.719583 1.664688 0.214521
14.053623 -0.002764 0.197095
15.484775 2.136265 1.923386
15.354088 -0.007313 1.888053
13.355315 -0.005992 1.843827
17.313093 -0.000069 1.874602
16.716465 1.666820 0.255013
18.046543 0.002285 0.278198
16.047857 -0.001543 0.242075
18.723881 1.664699 0.295649
19.031633 -0.000520 1.619361
20.048437 -0.000719 0.315006
16.725096 -0.005536 3.556693
18.992159 -0.003503 3.410540
17.699532 2.683318 3.222756
17.943789 -0.011001 5.280733
16.629711 1.658238 5.250415
15.948417 -0.005796 5.240099
14.670003 -0.013011 3.541324
15.756938 2.882490 3.588783
18.677048 1.688243 5.296871
17.260469 3.332621 5.266223
19.231630 3.380001 5.313431
19.308695 4.989214 3.643281
20.942694 3.676818 5.360164
21.309507 4.995790 3.699839
19.636242 2.488590 2.674929
20.675482 4.997203 2.012871
21.912632 2.511855 2.840226
22.668093 5.007504 2.056246
23.331787 3.401696 0.401845
23.972399 2.445930 2.710850
25.036448 3.687656 0.434340
25.042950 1.895949 0.430158
25.993216 2.508689 2.185198
27.288216 1.703586 0.459081
26.734066 3.398502 0.452660
29.274731 0.006003 2.064854
28.019569 0.001746 0.455327
29.329298 1.679942 0.454375
30.995819 0.007246 1.777338
32.016895 0.010111 0.461356
31.330759 1.677810 0.466173
30.020702 0.009857 0.454961
33.293388 1.663465 0.468979
34.020405 0.023376 0.447402
32.686371 0.004446 2.075092
34.601727 0.007046 2.136679
34.984009 2.406053 3.002592
36.518780 0.008364 2.296024
35.122253 0.000301 3.842518
36.807926 0.000782 4.031902
38.240746 2.517545 5.550676
37.691120 2.164904 2.710620
38.297985 -0.001960 3.068696
38.055416 0.025862 0.527479
37.924187 -0.008827 5.530695
35.945126 -0.009580 5.470726
36.511673 1.742938 5.493955
34.892906 1.327003 5.469914
34.811859 3.126186 5.476307
36.708424 3.476735 5.500019
33.979301 4.994432 5.482624
32.663574 3.299699 5.479181
33.266338 4.999974 3.826564
31.976023 4.996999 5.474945
35.144291 4.999075 3.866196
32.201878 2.613944 2.897083
34.597118 5.006178 2.167557
32.657040 3.342744 0.467001
33.195141 0.001366 3.774765
30.973883 0.008821 3.565982
31.282589 1.663296 5.459329
33.214458 1.601663 5.466115
30.633488 3.331264 5.464566
28.632965 3.338752 5.462122
29.297247 1.670458 5.456903
30.014191 2.507506 2.929985
27.957716 2.500560 2.942242
26.624695 3.333015 5.451939
27.291550 1.667918 5.446857
24.666859 4.999975 2.094868
22.044230 5.006331 0.372553
21.380341 3.341442 0.349778
22.787613 1.705456 0.386944
20.053648 4.990895 0.327142
19.387363 3.327484 0.310762
18.676426 4.994328 1.959375
18.052702 4.986435 0.274166
17.384676 3.327719 0.271083
16.045614 4.994096 0.237980
16.671610 4.992125 1.916318
14.671871 5.000540 1.876025
13.677599 2.953008 3.452290
12.949350 1.317746 5.167068
12.658265 -0.013825 3.496202
13.950916 -0.004532 5.198127
11.236043 1.606977 5.130039
10.649590 -0.006509 3.450126
11.959801 -0.009899 5.149807
9.967730 -0.003516 5.110278
11.349986 -0.002608 1.798419
9.327059 -0.002437 1.767462
10.047300 0.004590 0.110583
8.724369 1.661645 0.088952
8.032371 4.998349 0.089749
10.035773 4.997460 0.119250
11.210352 2.634853 3.411591
9.242097 4.993237 3.403650
10.698407 3.304738 5.121249
11.295627 4.993224 3.462337
9.960307 4.992909 5.115741
11.950956 4.995265 5.152881
7.965216 4.998406 5.074067
8.703612 3.382448 5.086996
6.953401 5.005819 3.171150
5.335258 3.381013 5.042139
5.972233 5.018344 5.042625
6.999047 3.684344 5.060982
5.130748 2.375941 3.178062
4.614534 5.008846 3.312837
3.476007 3.200030 5.016736
3.984607 5.017190 5.017592
2.368224 5.001175 3.288870
4.863066 1.604820 0.029862
4.913735 0.005913 1.908411
6.756546 1.656958 0.065140
7.009972 2.559141 2.260545
8.639243 -0.001520 3.426130
17.308462 4.993654 3.595703
15.308187 4.999412 3.554929
15.947770 5.000129 5.233622
14.660983 1.607605 5.207687
15.209241 3.305517 5.219540
12.051250 -0.002840 0.145443
15.381992 3.328649 0.231232
14.047409 4.999771 0.195067
12.672244 5.003039 1.829647
13.307051 4.994946 3.511511
7.256012 0.001683 1.761618
6.653596 -0.004558 3.440272
4.889450 1.654939 5.046073
5.973210 -0.003808 5.056232
4.903486 0.006680 3.701301
3.986108 0.005289 5.030855
7.013053 1.886616 5.066449
7.967865 -0.000556 5.077537
9.241437 1.686455 5.096451
20.943724 1.887301 5.350482
22.653358 3.390562 5.380721
23.956755 4.992356 5.411302
24.614008 3.335224 5.416335
23.312485 5.001949 3.732018
27.317938 5.003954 3.797081
26.664675 5.007909 2.124019
25.315929 4.996093 3.771060
35.189930 1.623582 0.474066
36.878323 1.469657 0.496639
39.974152 3.239633 4.239421
39.988525 1.625315 3.219376
38.307030 4.994241 3.081199
40.015881 3.248902 2.517198
39.987591 4.992016 3.944510
37.944630 5.010170 5.529568
39.929626 4.997931 5.620724
39.928272 3.326800 5.620626
39.924850 1.648457 5.627163
39.960918 -0.015454 3.947637
40.016190 0.004053 2.280265
40.066227 0.022372 0.620512
40.064365 1.681149 0.626020
40.062420 3.329312 0.617848
38.357990 2.478746 0.556259
38.068302 4.999209 0.545061
40.032352 4.991633 2.279059
36.818737 4.996095 4.043427
36.519028 4.999833 2.310935
36.554840 3.191398 0.495738
36.037518 5.004575 0.491331
34.623379 3.315557 0.474094
34.025742 5.006431 0.470881
30.673397 3.345558 0.460196
30.011530 5.007299 0.462835
32.020473 5.011030 0.472130
30.651707 5.007286 2.132326
28.680387 3.350950 0.455030
26.709583 -0.005590 3.835391
27.274569 0.002588 2.147915
25.267799 1.667144 5.428852
23.942314 -0.001095 5.398733
25.954580 0.001057 5.438688
24.972734 0.001923 4.098681
23.202053 1.694320 5.391719
23.250835 -0.003119 3.772735
21.244640 -0.000423 3.652853
21.936827 -0.007390 5.356654
19.942917 -0.006854 5.318737
17.945702 4.995621 5.274524
19.939840 4.992681 5.327110
22.747520 -0.003080 2.067694
25.011290 0.003358 2.312384
24.047909 0.000731 0.404098
26.038427 0.000661 0.440109
26.030960 5.009960 0.444859
25.683416 2.229809 3.933558
28.656557 5.006483 2.128932
28.016586 5.008310 0.456521
25.962307 4.991220 5.444497
12.043958 5.003204 0.154052
12.950029 3.109053 5.168380
13.946866 5.003221 5.193090
21.951777 4.996667 5.372594
28.724430 0.004652 3.764148
29.317356 5.005889 3.796165
29.976032 5.005826 5.465083
31.302271 5.001962 3.807396
31.971668 0.006353 5.460814
33.965855 -0.012589 5.463696
35.960758 4.996988 5.489829
32.637371 5.008687 2.145639
20.737213 1.670229 0.331294
20.746025 -0.000537 1.942365
24.039875 5.012106 0.417897
27.974945 5.001036 5.464848
40.073067 4.986253 0.607857
3.173694 1.469162 5.018151
0.000000 3.103853 1.750106
0.000000 5.000000 1.666667
0.000000 3.333333 0.000000
2.001444 4.987864 0.005048
0.000000 5.000000 0.000000
0.000000 5.000000 3.333333
0.000000 0.000000 3.333333
1.694740 2.467684 5.006783
3.036000 -0.002671 3.400948
1.999295 -0.003754 5.008640
0.000000 2.403264 3.370902
0.000000 1.666667 5.000000
0.000000 3.333333 5.000000
0.000000 0.000000 5.000000
27.972116 0.007991 5.451803
29.977772 0.005999 5.456287
36.033932 0.023841 0.471514
39.916653 -0.021117 5.615460
8.037495 0.003466 0.078537
1.994971 4.999261 5.011938
3.175202 1.450627 0.016182
4.017778 0.004743 0.021180
22.056021 0.000547 0.364225
0.000000 5.000000 5.000000
6.032125 0.011645 0.048943

CELLS 734 3670
4 0 1 2 3
4 0 4 2 5
4 0 3 2 6
4 4 6 0 2
4 4 6 7 0
4 8 9 10 11
4 12 13 14 15
4 16 17 14 18
4 19 20 18 21
4 20 22 21 23
4 24 25 26 23
4 25 27 26 23
4 26 28 29 30
4 28 29 31 32
4 33 34 32 31
4 31 33 35 32
4 31 33 36 35
4 33 37 36 35
4 38 39 40 31
4 41 42 43 38
4 44 42 45 38
4 44 42 38 43
4 46 38 42 41
4 46 47 40 48
4 49 50 51 52
4 53 54 51 55
4 56 54 55 57
4 56 58 59 57
4 60 59 61 62
4 63 61 64 65
4 66 67 68 69
4 67 70 71 72
4 73 74 75 76
4 74 77 75 76
4 77 78 79 80
4 79 81 75 80
4 77 78 80 82
4 77 83 76 84
4 83 85 76 84
4 85 86 74 84
4 74 86 87 84
4 88 89 86 90
4 91 89 88 90
4 86 88 90 92
4 90 86 92 74
4 86 89 74 90
4 93 94 95 74
4 70 74 72 93
4 70 73 71 72
4 74 96 73 72
4 66 97 93 72
4 96 97 72 93
4 96 98 97 93
4 85 96 74 99
4 96 98 93 99
4 98 89 100 93
4 101 102 100 103
4 104 105 101 106
4 107 58 57 60
4 58 107 57 56
4 53 108 109 55
4 56 110 109 54
4 53 111 109 108
4 112 53 109 52
4 111 112 113 53
4 112 111 113 114
4 115 116 114 117
4 40 28 115 117
4 45 117 118 28
4 119 28 25 44
4 120 44 121 122
4 123 121 124 125
4 125 123 126 124
4 127 128 21 124
4 16 129 128 21
4 16 18 14 130
4 16 17 18 19
4 131 17 132 18
4 16 19 18 21
4 133 16 19 134
4 135 134 133 136
4 135 137 136 138
4 137 134 139 140
4 141 142 143 144
4 145 146 147 7
4 142 148 147 146
4 7 146 147 149
4 10 7 9 146
4 145 150 7 151
4 152 151 150 153
4 16 128 154 124
4 124 21 121 133
4 25 28 30 44
4 28 38 45 40
4 45 47 40 42
4 155 45 156 47
4 157 156 47 155
4 155 45 40 117
4 45 42 158 159
4 44 42 43 158
4 119 45 158 159
4 120 44 158 119
4 25 127 21 121
4 25 27 160 30
4 127 25 160 30
4 25 127 121 30
4 44 25 121 30
4 28 30 44 29
4 119 28 44 45
4 119 28 118 25
4 28 24 26 161
4 26 32 29 28
4 28 31 29 38
4 46 38 41 39
4 46 38 39 40
4 28 117 40 45
4 118 28 117 161
4 162 24 118 161
4 118 119 163 164
4 136 119 164 163
4 25 133 21 163
4 128 16 21 124
4 165 166 153 154
4 166 167 168 169
4 167 168 169 170
4 171 168 172 166
4 124 173 126 154
4 123 121 133 124
4 120 125 122 121
4 122 158 44 43
4 47 46 40 42
4 52 50 174 48
4 175 50 174 54
4 176 175 177 178
4 179 60 180 181
4 64 69 63 65
4 68 72 67 66
4 70 73 182 71
4 74 79 183 75
4 184 78 185 79
4 79 184 186 187
4 186 184 188 187
4 184 189 190 191
4 184 78 79 186
4 78 189 184 191
4 189 184 190 188
4 184 78 191 192
4 184 78 192 185
4 192 78 80 185
4 193 80 194 185
4 195 81 196 194
4 81 79 196 194
4 197 187 196 198
4 187 79 185 196
4 79 184 187 185
4 197 199 187 198
4 199 197 187 200
4 199 200 187 186
4 78 201 79 186
4 189 201 87 78
4 202 201 79 74
4 201 74 92 87
4 201 202 92 74
4 201 202 79 186
4 202 203 74 79
4 202 198 203 79
4 204 202 199 203
4 202 203 205 74
4 202 204 205 203
4 182 203 74 205
4 74 203 183 79
4 79 203 183 198
4 79 81 198 183
4 81 79 198 196
4 187 79 196 198
4 202 198 79 186
4 202 204 94 205
4 94 95 205 206
4 207 208 209 210
4 208 207 211 210
4 104 103 211 65
4 104 60 212 213
4 214 215 216 217
4 218 219 220 221
4 222 174 220 221
4 46 39 222 174
4 52 46 40 48
4 40 49 52 48
4 53 49 52 113
4 40 49 155 113
4 155 45 47 40
4 157 47 223 155
4 49 223 224 48
4 52 50 51 54
4 175 54 57 178
4 218 175 54 57
4 225 219 54 57
4 218 175 57 177
4 57 217 219 218
4 219 225 226 57
4 225 227 226 57
4 59 110 57 227
4 59 60 61 228
4 61 60 213 228
4 64 61 213 228
4 63 61 213 64
4 61 104 211 65
4 180 60 104 62
4 58 229 62 180
4 58 60 180 62
4 60 61 104 62
4 60 226 230 212
4 226 60 213 212
4 60 104 212 230
4 179 60 230 104
4 104 211 231 62
4 180 229 62 232
4 180 232 62 231
4 179 60 104 180
4 233 181 105 179
4 181 105 179 230
4 105 214 106 230
4 105 214 230 177
4 215 214 218 217
4 215 217 218 219
4 218 215 219 221
4 218 175 174 54
4 39 52 220 174
4 39 46 52 174
4 115 52 112 35
4 28 115 117 161
4 162 118 116 161
4 24 162 118 163
4 20 19 234 163
4 25 133 163 119
4 120 119 158 235
4 236 119 235 159
4 235 119 158 159
4 119 235 133 136
4 138 235 236 164
4 45 47 42 159
4 46 38 40 42
4 49 50 52 48
4 237 175 176 178
4 181 233 177 176
4 180 179 231 104
4 207 103 65 211
4 207 103 68 65
4 65 66 103 68
4 103 66 97 93
4 66 103 97 63
4 213 104 63 238
4 238 97 103 63
4 104 102 103 238
4 104 106 212 230
4 214 212 106 230
4 214 212 216 106
4 214 212 217 216
4 214 212 230 217
4 226 217 230 212
4 226 60 230 57
4 181 60 57 230
4 179 105 104 230
4 179 105 101 104
4 104 239 103 101
4 239 101 240 100
4 91 241 240 100
4 241 239 240 100
4 239 241 103 100
4 103 210 93 241
4 103 207 93 210
4 210 103 231 239
4 103 239 104 231
4 103 104 63 65
4 65 66 63 103
4 65 66 68 69
4 68 72 66 93
4 96 98 242 97
4 85 96 99 243
4 85 86 99 74
4 86 89 99 74
4 88 86 244 92
4 74 86 92 87
4 201 244 87 92
4 244 86 87 92
4 90 74 92 94
4 94 95 206 245
4 95 209 206 245
4 245 207 95 209
4 208 232 231 211
4 180 104 231 62
4 181 60 107 57
4 54 175 51 178
4 50 52 174 54
4 246 36 52 247
4 246 36 37 35
4 52 31 36 35
4 31 39 52 36
4 39 46 222 41
4 39 222 174 220
4 174 218 220 221
4 218 219 54 220
4 225 219 220 54
4 56 110 54 57
4 110 56 59 57
4 60 59 226 228
4 60 226 213 228
4 57 217 230 226
4 214 217 230 218
4 218 57 230 177
4 181 105 230 177
4 179 60 181 230
4 58 107 180 60
4 229 107 58 248
4 229 107 180 58
4 60 58 59 62
4 58 107 56 248
4 108 56 109 55
4 108 56 55 248
4 107 56 55 57
4 107 181 57 178
4 57 181 177 178
4 181 176 177 178
4 233 181 177 105
4 249 239 101 240
4 91 89 241 100
4 89 91 241 90
4 210 245 93 241
4 245 241 90 93
4 93 94 90 245
4 74 202 92 94
4 205 204 94 206
4 202 198 199 203
4 202 198 186 199
4 199 197 200 250
4 199 186 187 198
4 200 186 188 187
4 184 189 186 188
4 201 189 87 244
4 189 201 78 186
4 201 78 79 87
4 189 78 184 186
4 186 79 187 198
4 74 201 79 87
4 74 79 84 87
4 79 78 84 87
4 77 78 84 79
4 74 77 84 79
4 74 85 84 76
4 83 243 76 85
4 85 96 243 76
4 73 96 74 76
4 96 93 74 99
4 89 93 99 74
4 93 94 74 90
4 93 94 245 95
4 207 95 68 93
4 95 70 68 93
4 95 70 74 205
4 74 70 182 205
4 94 95 74 205
4 241 89 90 93
4 104 179 231 239
4 181 60 180 107
4 107 57 55 178
4 57 54 55 178
4 53 49 51 52
4 40 49 113 52
4 155 47 223 48
4 45 47 159 156
4 119 156 45 159
4 120 44 119 121
4 16 173 124 154
4 166 167 169 145
4 145 7 147 251
4 9 7 252 149
4 253 254 252 255
4 256 253 255 254
4 6 9 252 255
4 253 257 149 252
4 7 258 259 260
4 260 261 251 170
4 169 260 251 170
4 169 251 167 170
4 166 167 145 171
4 16 22 18 130
4 25 24 20 23
4 24 25 118 28
4 119 156 118 45
4 119 28 45 118
4 119 45 44 158
4 44 38 28 29
4 25 28 26 30
4 25 24 26 28
4 24 20 234 163
4 162 24 234 163
4 163 119 118 25
4 235 135 133 136
4 135 134 140 133
4 145 141 153 144
4 145 260 169 151
4 0 258 4 5
4 259 258 262 263
4 264 259 262 263
4 258 7 262 0
4 260 258 259 261
4 258 261 263 259
4 261 258 263 265
4 261 260 251 259
4 167 251 169 145
4 145 260 251 169
4 166 167 171 168
4 16 171 153 140
4 137 135 136 134
4 138 135 235 136
4 235 138 136 164
4 236 119 156 164
4 157 156 159 47
4 155 47 48 40
4 40 49 48 155
4 46 52 174 48
4 247 225 220 54
4 110 225 57 227
4 60 59 57 226
4 104 61 211 62
4 232 211 62 231
4 103 104 211 231
4 239 210 103 241
4 241 93 103 100
4 68 72 93 70
4 103 207 68 93
4 207 103 211 210
4 210 208 231 211
4 103 210 231 211
4 245 207 210 93
4 245 207 209 210
4 245 207 93 95
4 70 95 74 93
4 70 73 74 182
4 182 203 183 74
4 202 74 205 94
4 93 89 90 74
4 89 241 100 93
4 93 98 103 100
4 101 104 102 103
4 104 101 102 106
4 106 238 104 212
4 266 216 212 106
4 106 238 212 266
4 106 238 102 104
4 267 266 238 102
4 97 102 267 238
4 106 238 266 102
4 97 102 238 103
4 97 102 103 98
4 97 102 98 267
4 97 98 242 267
4 96 98 99 242
4 89 98 99 93
4 239 101 100 103
4 104 179 239 101
4 179 249 239 101
4 105 179 101 249
4 233 105 249 179
4 177 181 57 230
4 175 57 177 178
4 175 237 51 178
4 55 54 51 178
4 112 111 109 53
4 112 53 52 113
4 117 115 113 114
4 116 118 117 161
4 115 116 117 161
4 28 115 161 32
4 29 32 26 34
4 26 30 29 27
4 34 26 29 27
4 29 34 31 32
4 31 115 32 35
4 31 115 28 32
4 246 112 52 35
4 246 247 52 54
4 247 110 225 54
4 59 227 57 226
4 213 104 238 212
4 104 103 63 238
4 97 98 103 93
4 70 73 72 74
4 71 182 268 73
4 182 75 268 73
4 182 75 183 268
4 183 81 268 75
4 182 75 74 183
4 79 81 183 75
4 79 81 80 194
4 78 192 80 82
4 192 193 80 82
4 269 193 192 82
4 193 192 80 185
4 80 79 194 185
4 77 74 75 79
4 85 96 76 74
4 96 243 242 99
4 98 102 103 100
4 104 105 106 230
4 214 218 230 177
4 50 175 51 54
4 49 155 223 48
4 157 156 236 159
4 236 119 159 156
4 235 119 164 136
4 236 119 164 235
4 133 235 120 123
4 120 235 133 119
4 135 123 235 133
4 124 173 123 126
4 173 172 126 154
4 166 171 154 172
4 172 171 154 173
4 171 16 154 173
4 171 166 154 153
4 16 171 154 153
4 124 173 16 133
4 124 173 133 123
4 25 133 119 121
4 19 16 133 21
4 163 19 133 21
4 134 19 133 136
4 133 119 136 163
4 133 19 163 136
4 132 20 18 19
4 20 132 234 19
4 20 19 163 21
4 22 20 21 18
4 16 22 21 18
4 128 129 127 21
4 160 129 21 127
4 160 21 25 127
4 25 20 21 23
4 25 27 23 160
4 25 27 30 26
4 23 22 21 160
4 16 129 21 22
4 128 130 165 270
4 128 130 270 129
4 128 130 16 165
4 16 165 153 154
4 17 16 14 153
4 131 17 18 14
4 17 141 153 15
4 12 10 15 153
4 15 17 14 153
4 153 16 14 130
4 16 129 22 130
4 128 130 129 16
4 16 128 165 154
4 151 166 153 165
4 260 145 7 151
4 9 6 252 7
4 7 262 252 149
4 260 259 7 251
4 7 259 147 251
4 264 259 271 149
4 259 7 147 149
4 146 148 147 149
4 271 259 147 149
4 148 271 147 149
4 146 142 143 141
4 144 141 140 139
4 141 134 140 139
4 143 141 144 139
4 142 145 141 146
4 145 142 141 144
4 148 142 143 146
4 145 7 10 146
4 145 150 151 153
4 151 272 150 7
4 151 272 273 150
4 151 272 4 273
4 4 272 2 273
4 151 272 7 4
4 4 260 7 151
4 166 145 151 153
4 166 145 169 151
4 171 166 153 145
4 133 16 140 173
4 124 16 21 133
4 25 21 160 23
4 21 129 160 22
4 121 21 124 127
4 121 120 133 119
4 123 121 125 120
4 123 121 120 133
4 25 133 121 21
4 25 20 163 21
4 118 24 28 161
4 26 28 161 32
4 40 115 28 31
4 115 52 113 112
4 246 112 109 52
4 246 52 109 54
4 56 54 109 55
4 56 107 55 248
4 58 60 59 57
4 63 61 65 104
4 68 72 70 67
4 182 75 73 74
4 77 79 75 80
4 196 79 185 194
4 79 78 185 80
4 77 78 82 84
4 83 77 82 84
4 77 74 84 76
4 96 74 93 72
4 103 66 93 68
4 65 66 69 63
4 63 61 104 213
4 61 60 104 213
4 59 227 226 228
4 274 110 227 225
4 246 36 247 37
4 246 36 35 52
4 52 115 40 31
4 28 31 38 40
4 44 42 158 45
4 120 44 122 158
4 135 133 140 173
4 171 16 173 140
4 171 144 153 140
4 141 144 140 153
4 10 141 15 153
4 10 12 15 13
4 10 8 12 13
4 8 10 12 11
4 8 9 11 255
4 9 253 149 252
4 257 262 149 252
4 262 259 149 7
4 258 7 4 260
4 259 258 7 262
4 262 0 7 252
4 0 6 7 252
4 254 6 252 255
4 0 3 6 252
4 6 3 254 252
4 272 6 11 7
4 4 6 272 7
4 4 6 2 272
4 9 6 11 255
4 9 253 252 255
4 262 264 257 149
4 257 264 275 271
4 259 264 262 149
4 257 264 271 149
4 9 146 7 149
4 10 7 11 9
4 7 12 10 11
4 145 150 153 12
4 12 145 10 153
4 145 146 10 141
4 145 142 147 146
4 171 145 153 144
4 171 142 145 144
4 142 171 145 167
4 142 145 147 167
4 167 145 147 251
4 145 260 7 251
4 145 150 12 7
4 12 145 7 10
4 12 152 153 14
4 152 153 14 130
4 152 151 153 165
4 165 152 276 270
4 152 151 165 276
4 165 152 270 130
4 152 151 276 150
4 276 150 151 273
4 272 7 11 150
4 7 12 11 150
4 153 150 152 12
4 165 16 153 130
4 165 152 130 153
4 15 12 153 14
4 13 131 14 15
4 17 131 15 14
4 17 132 18 19
4 25 24 163 20
4 25 24 118 163
4 119 156 164 118
4 118 117 45 156
4 155 45 117 156
4 113 40 117 155
4 50 49 224 48
4 49 50 224 51
4 50 237 224 51
4 237 50 175 51
4 52 54 220 174
4 52 247 220 54
4 39 247 220 52
4 39 247 52 36
4 115 52 35 31
4 40 115 52 113
4 40 115 113 117
4 115 112 113 114
4 53 52 51 54
4 54 53 109 55
4 52 53 109 54
4 110 246 109 54
4 247 110 54 246
4 247 110 274 225
4 246 274 37 247
4 247 110 246 274
4 110 225 54 57
4 57 217 226 219
4 57 217 218 230
4 219 218 54 57
4 218 54 174 220
4 46 39 52 40
4 39 31 52 40
4 38 42 45 40
4 28 38 44 45
4 121 25 44 119
4 123 135 173 133
4 134 153 140 16
4 134 16 140 133
4 137 135 134 140
4 134 153 141 140
4 134 153 16 17
4 16 17 19 134
4 134 153 17 141
4 153 145 10 141
4 6 9 11 7
4 258 7 0 4
4 1 0 2 5

CELL_TYPES 734
10
10
10
10
10
10
10
10
10
10
10
10
10
10
10
10
10
10
10
10
10
10
10
10
10
10
10
10
10
10
10
10
10
10
10
10
10
10
10
10
10
10
10
10
10
10
10
10
10
10
10
10
10
10
10
10
10
10
10
10
10
10
10
10
10
10
10
10
10
10
10
10
10
10
10
10
10
10
10
10
10
10
10
10
10
10
10
10
10
10
10
10
10
10
10
10
10
10
10
10
10
10
10
10
10
10
10
10
10
10
10
10
10
10
10
10
10
10
10
10
10
10
10
10
10
10
10
10
10
10
10
10
10
10
10
10
10
10
10
10
10
10
10
10
10
10
10
10
10
10
10
10
10
10
10
10
10
10
10
10
10
10
10
10
10
10
10
10
10
10
10
10
10
10
10
10
10
10
10
10
10
10
10
10
10
10
10
10
10
10
10
10
10
10
10
10
10
10
10
10
10
10
10
10
10
10
10
10
10
10
10
10
10
10
10
10
10
10
10
10
10
10
10
10
10
10
10
10
10
10
10
10
10
10
10
10
10
10
10
10
10
10
10
10
10
10
10
10
10
10
10
10
10
10
10
10
10
10
10
10
10
10
10
10
10
10
10
10
10
10
10
10
10
10
10
10
10
10
10
10
10
10
10
10
10
10
10
10
10
10
10
10
10
10
10
10
10
10
10
10
10
10
10
10
10
10
10
10
10
10
10
10
10
10
10
10
10
10
10
10
10
10
10
10
10
10
10
10
10
10
10
10
10
10
10
10
10
10
10
10
10
10
10
10
10
10
10
10
10
10
10
10
10
10
10
10
10
10
10
10
10
10
10
10
10
10
10
10
10
10
10
10
10
10
10
10
10
10
10
10
10
10
10
10
10
10
10
10
10
10
10
10
10
10
10
10
10
10
10
10
10
10
10
10
10
10
10
10
10
10
10
10
10
10
10
10
10
10
10
10
10
10
10
10
10
10
10
10
10
10
10
10
10
10
10
10
10
10
10
10
10
10
10
10
10
10
10
10
10
10
10
10
10
10
10
10
10
10
10
10
10
10
10
10
10
10
10
10
10
10
10
10
10
10
10
10
10
10
10
10
10
10
10
10
10
10
10
10
10
10
10
10
10
10
10
10
10
10
10
10
10
10
10
10
10
10
10
10
10
10
10
10
10
10
10
10
10
10
10
10
10
10
10
10
10
10
10
10
10
10
10
10
10
10
10
10
10
10
10
10
10
10
10
10
10
10
10
10
10
10
10
10
10
10
10
10
10
10
10
10
10
10
10
10
10
10
10
10
10
10
10
10
10
10
10
10
10
10
10
10
10
10
10
10
10
10
10
10
10
10
10
10
10
10
10
10
10
10
10
10
10
10
10
10
10
10
10
10
10
10
10
10
10
10
10
10
10
10
10
10
10
10
10
10
10
10
10
10
10
10
10
10
10
10
10
10
10
10
10
10
10
10
10
10
10
10
10
10
10
10
10
10
10
10
10
10
10
10
10
10
10
10
10
10
10
10
10
10
10
10
10
10
10
10
10
10
10
10
10
10
10
10
10
10
10
10
10
10
10
10
10
10
10
10
10
10
10
10
10
10
10
10
10
10
10
10
10
10
10
10
10
10
10
10
10
10
10
10
10
10
10
10
10
10
10
10
10
10
10
10
10
10
10
10

CELL_DATA 734
SCALARS potentialEnergy FLOAT 1
LOOKUP_TABLE default
60.216389
27.873428
51.534740
142.848083
43.959881
72.606339
97.085724
69.090015
115.904541
43.003315
42.034546
36.724520
37.832270
22.926977
15.021098
52.147293
73.438168
23.356933
21.483274
43.001358
59.291946
23.583097
26.920919
39.834866
67.566372
77.503876
83.064034
73.231876
181.268478
89.485130
25.847633
203.156921
116.778603
79.502457
385.758270
152.524887
334.614532
64.787663
146.025162
120.115578
166.399460
98.849709
51.756500
153.166412
416.250244
347.831940
205.031754
263.994324
336.291779
232.616257
107.199043
142.587845
194.334229
212.222702
117.857384
69.672115
132.023857
113.490791
27.354155
143.290100
77.534584
89.606194
106.864326
56.156677
54.889164
44.905064
79.896637
61.343254
47.427765
114.523651
27.662546
64.065598
88.382126
33.988735
42.311417
95.150047
41.901400
25.256567
59.135830
44.903656
50.709206
76.366821
55.708454
133.243347
159.953934
127.699196
84.957886
159.211884
103.880226
290.307007
60.946663
107.265083
44.471222
36.615648
23.061927
22.670094
43.290142
26.372807
75.129471
34.405243
57.922417
60.222813
54.019619
49.521881
42.280029
52.388023
43.262085
47.444263
85.925682
116.881927
33.401657
67.183479
14.287659
44.868309
46.304234
23.716574
64.770203
28.497250
27.428989
29.297276
122.916809
54.264038
33.910540
89.165367
101.540726
43.434235
116.053780
152.715363
48.813557
16.649908
23.490471
52.209869
66.531979
56.259197
62.458221
68.049076
34.541691
222.411682
102.008034
443.322235
357.901550
158.915329
170.910553
573.060669
270.287842
209.313202
207.608475
522.339600
672.639709
114.770996
372.993561
563.648804
397.790466
277.917145
263.427902
235.717163
111.846947
286.475525
389.188141
157.364838
153.373245
81.401817
27.167952
259.689590
176.752319
287.880035
837.653259
332.339111
181.329956
220.004562
166.270660
229.354462
419.307587
700.659119
434.647491
399.615997
76.576271
97.078392
171.169159
47.852726
153.870499
121.004982
85.697708
37.957418
56.578796
31.428144
37.427979
52.691761
116.379929
49.940052
40.771414
24.576000
41.919621
124.311806
32.589577
21.275951
29.944267
74.752579
68.355812
38.689161
81.845444
81.983604
163.289536
158.652206
298.611877
90.064209
142.156494
153.798477
72.769047
200.903122
46.150234
20.665898
18.283102
144.307571
160.492432
201.881805
148.791351
83.571976
52.862724
106.878891
63.328869
155.553879
125.715172
129.442200
40.392054
49.521423
47.104698
96.182678
34.438299
27.861662
44.455105
22.204771
19.077316
23.951740
113.094925
26.263037
57.102554
44.763630
45.940483
47.114281
59.325939
43.208828
129.203117
31.460485
37.717543
94.009605
54.722729
49.336823
46.438099
42.729347
63.606918
172.888962
89.128983
291.534851
169.253876
228.712952
142.833054
68.998676
136.238800
104.181686
27.997972
66.583019
122.169334
225.604660
354.118042
63.620804
23.190168
39.260368
118.072830
31.305506
33.402411
25.578432
62.142658
200.290543
65.671524
48.370975
84.310783
72.095150
99.943031
154.622910
210.893066
307.498810
237.705215
28.075560
106.850677
247.368271
197.557999
156.906235
81.445419
66.281239
135.769913
103.835999
70.944263
89.141693
40.354424
21.625598
26.296530
15.413670
40.718414
66.259232
53.847630
28.249886
30.112070
233.087463
84.184425
86.074593
56.497204
68.737907
146.953125
81.816719
289.790070
112.701469
34.141201
90.886345
48.028366
123.711800
48.327606
57.587990
32.624615
63.832073
155.255188
68.303101
19.735281
129.627190
93.103416
38.830973
42.981468
41.328199
81.382027
110.204460
65.034496
98.293716
253.281647
281.017059
106.906464
436.422028
134.807449
216.208908
220.226288
183.214355
277.642059
349.182251
568.743042
61.526100
57.607204
223.012177
451.658081
100.009605
138.915970
285.095734
258.418671
260.810684
330.017365
220.767929
168.769760
140.368973
45.767502
77.753799
167.309662
262.006546
202.291870
169.470337
70.685295
97.400475
97.095825
127.691719
64.664604
64.326729
41.070137
41.313944
28.490187
59.910511
31.248386
185.049454
146.407394
86.099396
54.930748
47.828423
73.110897
38.844709
50.281013
122.250778
108.419121
169.011368
229.318649
45.917225
23.029619
138.835434
133.338959
84.333237
80.148941
33.306658
44.497093
36.824465
35.210907
85.139885
58.706409
76.948082
51.232410
129.068703
92.808685
74.573959
214.141953
150.579056
49.108616
62.369839
98.921410
24.880406
88.052040
276.752594
170.285583
137.002907
48.114208
37.594372
69.489086
50.158989
42.304802
26.932608
52.002796
54.372772
33.134613
53.275566
34.830139
23.036625
116.510468
105.478363
286.417786
42.539314
167.845673
190.279770
35.882265
79.917854
54.262215
129.851166
82.063141
40.147827
74.614029
291.829346
319.347717
122.196846
126.944382
343.189911
98.818718
61.110031
204.422638
106.140968
268.702728
257.503418
91.614975
151.049545
135.663330
60.597160
78.025406
160.982346
128.156624
54.511482
71.168507
67.117405
92.215073
197.761078
216.058472
92.652504
77.175980
129.485649
110.276535
111.990463
60.936760
50.832569
84.357681
74.946953
75.781548
31.139170
28.777740
36.996862
26.832943
37.515299
41.314455
30.539694
35.640396
42.333687
35.034147
103.788910
71.145184
30.664621
210.794144
149.057510
49.052818
259.401337
117.948715
56.273190
75.162178
344.208466
126.577042
372.634338
416.050690
550.275391
262.836136
167.499435
355.423401
159.730057
111.659698
330.118713
130.172844
123.591888
101.566605
128.724556
80.188148
48.752392
34.780596
56.833511
32.583374
53.270889
73.582039
27.688917
69.427834
107.397476
42.509102
51.090794
48.717621
45.803806
136.277428
40.021133
19.268551
77.944893
72.955765
59.904236
52.095791
85.320335
41.467438
43.930187
40.466679
54.072525
41.024069
54.636211
64.931305
35.864931
48.833057
40.987356
39.761742
43.171207
33.697674
63.752762
37.057734
38.226564
71.330261
84.500481
90.185089
58.118160
68.899197
145.760223
53.360210
104.249275
89.346748
47.120911
30.114635
70.693493
135.405289
46.575245
64.508678
66.429527
183.374023
81.159042
60.181065
240.715286
92.827438
205.974579
126.800781
105.878952
75.319313
51.114773
80.608307
132.781006
140.714188
123.631729
65.162426
114.978432
194.960693
145.689575
89.990532
175.549805
88.055389
71.849773
63.171894
158.691452
55.793495
32.384897
45.744148
28.474312
50.578068
54.592205
50.090603
79.926201
65.229355
66.871384
115.337135
114.477737
76.377762
41.907402
30.286514
42.111317
60.399555
121.843117
68.688572
111.529579
202.404526
25.030273
130.407326
190.658417
252.922684
896.339661
176.450699
244.885406
62.366364
259.147736
45.275391
27.676474
220.980118
63.605083
89.166786
68.594131
34.291901
49.915295
45.918797
22.269229
102.399567
18.383731
39.974688
57.274902
61.322777
102.924400
53.649719
45.939781
102.385490
72.058643
53.928375
51.985821
48.174870
61.165787
22.401038
84.074257
38.406664
66.457623
107.772522
323.791809
312.465942
98.533875
99.145432
233.387802
112.888161
48.034542
48.930756
198.004547
53.232861
31.091137
134.819321
133.592575
136.393646
59.884212
59.360416
118.450096
389.321899
60.320122
111.371262
165.227173
136.416878
167.485413
153.378357
116.064262
23.934632
104.004074
58.310459
123.492569
59.907448
116.074150
54.563293
175.244156
162.757095
119.432777
87.571274
155.316727
82.745216
144.106339
233.983658
111.869591
188.396606
33.348186
119.894096
58.586868
39.164841
31.226942
21.906751
32.876995
29.526472
24.780364
113.809692
37.876602
96.827301
68.349098
70.164833
31.243818
55.194561
30.839817
47.312962
60.453388
71.745239
114.476921
89.113007
47.042999
72.661060
61.441906
57.366783
64.996948
38.968504
56.293480
95.527252
47.630829
59.192165
18.516777
52.827209
42.671013
43.267052
81.755470
33.968151
90.840958
39.163340
54.818478
163.496643
50.119350
45.285255
138.133636
89.101692
214.521790
23.716665
49.451145

