# vtk DataFile Version 3.1
Tetrahedral Mesh Visualization
ASCII
DATASET UNSTRUCTURED_GRID

POINTS 277 FLOAT
0.000000 1.378113 1.754166
0.000000 0.000000 0.000000
2.000533 -0.007602 0.008422
0.000000 1.666667 0.000000
2.420617 -0.007587 1.745350
0.000000 0.000000 1.666667
1.690739 2.462205 0.005747
2.998020 2.444274 2.337599
3.992678 4.995282 0.011037
3.072456 4.988203 1.661646
5.203522 4.994741 1.623302
3.480220 3.173902 0.007094
5.391872 3.302536 0.003401
5.987435 4.997823 0.007407
7.347084 3.322745 -0.001664
6.959464 4.994260 1.329977
9.245969 2.170999 2.024673
8.682202 4.995650 1.616943
9.322821 3.334167 -0.004338
10.641081 5.014318 1.656327
11.304315 3.348797 -0.010626
11.095801 1.870779 1.546262
10.650684 1.672700 -0.013313
12.633233 1.687534 -0.034646
13.292994 3.363200 -0.032836
12.951635 1.891002 1.458848
14.618915 1.694517 -0.072651
13.956104 0.024115 -0.066293
15.450324 2.167076 1.594689
15.314789 0.017644 1.561955
13.317302 0.012265 1.617557
17.273726 0.031068 1.446527
16.610073 1.700045 -0.130664
17.941658 0.052216 -0.189097
15.946488 0.024013 -0.115189
18.610212 1.721267 -0.194185
18.975708 0.045246 1.103608
19.942657 0.064168 -0.245390
16.753828 0.018127 3.151763
19.017117 0.043687 2.891406
17.710907 2.720082 2.783364
18.069754 0.018941 4.807733
16.743345 1.669402 4.858696
16.062243 0.007784 4.870944
14.696055 0.010845 3.243370
15.791174 2.896012 3.251499
18.793652 1.724146 4.793800
17.375307 3.348065 4.856726
19.345383 3.420378 4.797741
19.344522 5.041043 3.142735
21.055729 3.719684 4.760559
21.343761 5.053015 3.094726
19.618519 2.549111 2.132809
20.631115 5.065754 1.440455
21.906977 2.584606 2.199804
22.634159 5.080072 1.399109
23.224901 3.489377 -0.302391
23.959343 2.529989 1.968102
24.936569 3.770547 -0.338799
24.935339 1.980515 -0.357018
25.955111 2.573332 1.367333
27.197140 1.782336 -0.390898
26.645441 3.477244 -0.364461
29.229206 0.054512 1.156337
27.927464 0.083176 -0.432119
29.241547 1.745481 -0.433034
30.938627 0.046442 0.824941
31.923252 0.057415 -0.517648
31.234421 1.722004 -0.483989
29.922417 0.074800 -0.477222
33.202267 1.709904 -0.537750
33.927322 0.054992 -0.566381
32.646938 0.034553 1.072383
34.564442 0.045658 1.099069
34.986938 2.445470 1.958455
36.473118 0.037870 1.165849
35.158363 0.032656 2.785540
36.851723 0.021477 2.880441
38.363491 2.520778 4.299542
37.668011 2.191075 1.507794
38.294033 0.026465 1.814486
37.908962 0.044135 -0.705533
38.068359 -0.000127 4.285112
36.068207 0.015795 4.369856
36.628410 1.757339 4.361252
34.998631 1.352727 4.410671
34.914700 3.148608 4.427975
36.827885 3.490299 4.373971
34.060787 5.008560 4.473660
32.760197 3.301528 4.483532
33.290977 5.025672 2.838167
32.073624 4.998870 4.532307
35.178799 5.030744 2.836315
32.193752 2.622021 1.926032
34.563148 5.051866 1.154654
32.563488 3.383959 -0.501442
33.220261 0.023176 2.758647
30.984962 0.031512 2.614388
31.372459 1.660287 4.513474
33.311138 1.609962 4.456964
30.732962 3.334839 4.548706
28.723457 3.342659 4.605222
29.382053 1.673486 4.564714
30.006020 2.542073 2.040998
27.946918 2.543204 2.087735
26.717655 3.354753 4.637391
27.375351 1.685320 4.602306
24.643362 5.072563 1.356974
21.931055 5.078589 -0.255515
21.265753 3.420628 -0.254349
22.670725 1.798931 -0.310034
19.923464 5.073772 -0.201778
19.267319 3.398696 -0.207698
18.629433 5.050756 1.495801
17.921446 5.051434 -0.150542
17.270607 3.378670 -0.142861
15.934670 5.049214 -0.090427
16.632784 5.039471 1.557515
14.638139 5.030754 1.605487
13.704321 2.973598 3.216668
13.038748 1.333558 4.953785
12.680978 0.008008 3.297671
14.045644 0.012861 4.931159
11.311543 1.629956 4.976054
10.670922 0.005558 3.325744
12.034546 0.018493 4.974577
10.025293 0.009624 4.991555
11.317214 0.005507 1.652273
9.299043 -0.007154 1.671270
9.980795 -0.000768 -0.006825
8.672728 1.656980 -0.005878
7.979136 4.997972 0.002128
9.966950 5.013062 -0.001263
11.230943 2.653839 3.270643
9.263200 4.998078 3.305918
10.771508 3.321856 4.983264
11.323854 5.012467 3.320346
10.026280 5.002183 4.995881
12.042902 5.007657 4.977547
8.015070 4.997610 5.002726
8.761946 3.390702 4.996541
6.966677 4.985585 3.124596
5.368349 3.360410 5.010643
6.012171 4.986973 5.015672
7.047517 3.674790 5.006763
5.141623 2.364377 3.145263
4.621582 4.989947 3.308875
3.492446 3.189166 5.016208
4.007086 4.991780 5.021222
2.370074 4.990951 3.293835
4.830649 1.605253 0.002424
4.897134 -0.003355 1.882688
6.713988 1.644286 -0.001921
7.007019 2.553971 2.189538
8.657822 -0.000302 3.342031
17.346306 5.025498 3.204692
15.347568 5.008312 3.259332
16.055906 5.002961 4.905048
14.761531 1.613561 4.914173
15.322459 3.301085 4.912825
11.968243 0.015967 -0.027710
15.282933 3.369908 -0.085056
13.947323 5.034776 -0.047165
12.637121 5.026151 1.639264
13.342414 5.014473 3.293420
7.233597 -0.007048 1.696461
6.670389 0.004483 3.384317
4.919660 1.647989 5.006175
6.010169 0.006892 5.003428
4.912739 -0.000972 3.671004
4.009863 0.001150 5.014120
7.067878 1.891691 5.001224
8.016533 0.005222 5.001439
9.301647 1.696870 4.989923
21.055040 1.932016 4.740581
22.767565 3.443491 4.720568
24.066515 5.038849 4.703754
24.724670 3.377615 4.674667
23.349037 5.060635 3.049973
27.346601 5.037563 2.984742
26.640051 5.063868 1.324853
25.351040 5.049857 3.018274
35.079216 1.670046 -0.595767
36.752815 1.504917 -0.655488
40.025223 3.250948 2.858761
39.991962 1.646852 1.825795
38.299839 5.018436 1.861387
39.965950 3.266264 1.129820
40.020641 5.003298 2.598613
38.080639 4.992947 4.345392
40.081055 4.992448 4.267124
40.075218 3.325631 4.239208
40.071243 1.670723 4.233349
40.018627 0.021307 2.557080
39.960667 0.035921 0.883332
39.900242 0.043975 -0.784078
39.894325 1.712901 -0.782906
39.887474 3.386626 -0.764874
38.207985 2.526234 -0.700052
37.910084 5.077330 -0.636851
39.979542 5.016780 0.939441
36.865597 5.021794 2.936196
36.480885 5.037752 1.224714
36.424088 3.237078 -0.625711
35.921669 5.059478 -0.583694
34.516125 3.372772 -0.560908
33.921871 5.069083 -0.521859
30.582970 3.398598 -0.440316
29.938114 5.071449 -0.406473
31.928463 5.063524 -0.462343
30.626947 5.046174 1.244302
28.595835 3.418629 -0.395281
26.730328 0.039513 2.975095
27.226656 0.061382 1.272480
25.367680 1.701743 4.638362
24.042877 0.047185 4.647799
26.046314 0.026547 4.606953
25.014351 0.053549 3.302839
23.317318 1.754974 4.682479
23.286886 0.072510 3.051515
21.280155 0.060612 3.032250
22.059238 0.046899 4.704132
20.065601 0.034597 4.757964
18.056314 5.015324 4.854125
20.055492 5.033287 4.791121
22.707630 0.090926 1.368967
24.968079 0.075942 1.509856
23.928957 0.092447 -0.353840
25.928864 0.085003 -0.394435
25.947517 5.086900 -0.330199
25.716341 2.278855 3.123707
28.634438 5.054322 1.293357
27.945620 5.080190 -0.364346
26.065048 5.022389 4.675892
11.955701 5.022520 -0.020184
13.045381 3.123700 4.956193
14.054353 5.002992 4.946355
22.055712 5.042974 4.748191
28.737415 0.035864 2.862451
29.342480 5.030410 2.948012
30.070854 5.006339 4.591303
31.334997 5.019604 2.888329
32.060364 0.004857 4.472917
34.066177 0.014667 4.425530
36.067783 5.010211 4.415053
32.605873 5.038165 1.185229
20.621433 1.743757 -0.251285
20.702303 0.068477 1.351130
23.941477 5.091088 -0.292510
28.063124 5.012252 4.637430
39.912838 5.046662 -0.724889
3.185966 1.464927 5.018509
0.000000 3.103853 1.750106
0.000000 5.000000 1.666667
0.000000 3.333333 0.000000
1.999600 4.993825 0.008684
0.000000 5.000000 0.000000
0.000000 5.000000 3.333333
0.000000 0.000000 3.333333
1.700761 2.467573 5.009653
3.036683 -0.004506 3.407093
2.001341 0.004149 5.016011
0.000000 2.403264 3.370902
0.000000 1.666667 5.000000
0.000000 3.333333 5.000000
0.000000 0.000000 5.000000
28.048670 0.016441 4.564825
30.053028 0.006939 4.523924
35.912724 0.055597 -0.637414
40.071365 0.004258 4.223965
7.986527 -0.008667 -0.000405
2.000106 4.991961 5.012949
3.155029 1.451019 0.003778
3.995288 -0.002979 0.004121
21.940254 0.094799 -0.305557
0.000000 5.000000 5.000000
5.987666 -0.005136 0.001900

CELLS 734 3670
4 0 1 2 3
4 0 4 2 5
4 0 3 2 6
4 4 6 0 2
4 4 6 7 0
4 8 9 10 11
4 12 13 14 15
4 16 17 14 18
4 19 20 18 21
4 20 22 21 23
4 24 25 26 23
4 25 27 26 23
4 26 28 29 30
4 28 29 31 32
4 33 34 32 31
4 31 33 35 32
4 31 33 36 35
4 33 37 36 35
4 38 39 40 31
4 41 42 43 38
4 44 42 45 38
4 44 42 38 43
4 46 38 42 41
4 46 47 40 48
4 49 50 51 52
4 53 54 51 55
4 56 54 55 57
4 56 58 59 57
4 60 59 61 62
4 63 61 64 65
4 66 67 68 69
4 67 70 71 72
4 73 74 75 76
4 74 77 75 76
4 77 78 79 80
4 79 81 75 80
4 77 78 80 82
4 77 83 76 84
4 83 85 76 84
4 85 86 74 84
4 74 86 87 84
4 88 89 86 90
4 91 89 88 90
4 86 88 90 92
4 90 86 92 74
4 86 89 74 90
4 93 94 95 74
4 70 74 72 93
4 70 73 71 72
4 74 96 73 72
4 66 97 93 72
4 96 97 72 93
4 96 98 97 93
4 85 96 74 99
4 96 98 93 99
4 98 89 100 93
4 101 102 100 103
4 104 105 101 106
4 107 58 57 60
4 58 107 57 56
4 53 108 109 55
4 56 110 109 54
4 53 111 109 108
4 112 53 109 52
4 111 112 113 53
4 112 111 113 114
4 115 116 114 117
4 40 28 115 117
4 45 117 118 28
4 119 28 25 44
4 120 44 121 122
4 123 121 124 125
4 125 123 126 124
4 127 128 21 124
4 16 129 128 21
4 16 18 14 130
4 16 17 18 19
4 131 17 132 18
4 16 19 18 21
4 133 16 19 134
4 135 134 133 136
4 135 137 136 138
4 137 134 139 140
4 141 142 143 144
4 145 146 147 7
4 142 148 147 146
4 7 146 147 149
4 10 7 9 146
4 145 150 7 151
4 152 151 150 153
4 16 128 154 124
4 124 21 121 133
4 25 28 30 44
4 28 38 45 40
4 45 47 40 42
4 155 45 156 47
4 157 156 47 155
4 155 45 40 117
4 45 42 158 159
4 44 42 43 158
4 119 45 158 159
4 120 44 158 119
4 25 127 21 121
4 25 27 160 30
4 127 25 160 30
4 25 127 121 30
4 44 25 121 30
4 28 30 44 29
4 119 28 44 45
4 119 28 118 25
4 28 24 26 161
4 26 32 29 28
4 28 31 29 38
4 46 38 41 39
4 46 38 39 40
4 28 117 40 45
4 118 28 117 161
4 162 24 118 161
4 118 119 163 164
4 136 119 164 163
4 25 133 21 163
4 128 16 21 124
4 165 166 153 154
4 166 167 168 169
4 167 168 169 170
4 171 168 172 166
4 124 173 126 154
4 123 121 133 124
4 120 125 122 121
4 122 158 44 43
4 47 46 40 42
4 52 50 174 48
4 175 50 174 54
4 176 175 177 178
4 179 60 180 181
4 64 69 63 65
4 68 72 67 66
4 70 73 182 71
4 74 79 183 75
4 184 78 185 79
4 79 184 186 187
4 186 184 188 187
4 184 189 190 191
4 184 78 79 186
4 78 189 184 191
4 189 184 190 188
4 184 78 191 192
4 184 78 192 185
4 192 78 80 185
4 193 80 194 185
4 195 81 196 194
4 81 79 196 194
4 197 187 196 198
4 187 79 185 196
4 79 184 187 185
4 197 199 187 198
4 199 197 187 200
4 199 200 187 186
4 78 201 79 186
4 189 201 87 78
4 202 201 79 74
4 201 74 92 87
4 201 202 92 74
4 201 202 79 186
4 202 203 74 79
4 202 198 203 79
4 204 202 199 203
4 202 203 205 74
4 202 204 205 203
4 182 203 74 205
4 74 203 183 79
4 79 203 183 198
4 79 81 198 183
4 81 79 198 196
4 187 79 196 198
4 202 198 79 186
4 202 204 94 205
4 94 95 205 206
4 207 208 209 210
4 208 207 211 210
4 104 103 211 65
4 104 60 212 213
4 214 215 216 217
4 218 219 220 221
4 222 174 220 221
4 46 39 222 174
4 52 46 40 48
4 40 49 52 48
4 53 49 52 113
4 40 49 155 113
4 155 45 47 40
4 157 47 223 155
4 49 223 224 48
4 52 50 51 54
4 175 54 57 178
4 218 175 54 57
4 225 219 54 57
4 218 175 57 177
4 57 217 219 218
4 219 225 226 57
4 225 227 226 57
4 59 110 57 227
4 59 60 61 228
4 61 60 213 228
4 64 61 213 228
4 63 61 213 64
4 61 104 211 65
4 180 60 104 62
4 58 229 62 180
4 58 60 180 62
4 60 61 104 62
4 60 226 230 212
4 226 60 213 212
4 60 104 212 230
4 179 60 230 104
4 104 211 231 62
4 180 229 62 232
4 180 232 62 231
4 179 60 104 180
4 233 181 105 179
4 181 105 179 230
4 105 214 106 230
4 105 214 230 177
4 215 214 218 217
4 215 217 218 219
4 218 215 219 221
4 218 175 174 54
4 39 52 220 174
4 39 46 52 174
4 115 52 112 35
4 28 115 117 161
4 162 118 116 161
4 24 162 118 163
4 20 19 234 163
4 25 133 163 119
4 120 119 158 235
4 236 119 235 159
4 235 119 158 159
4 119 235 133 136
4 138 235 236 164
4 45 47 42 159
4 46 38 40 42
4 49 50 52 48
4 237 175 176 178
4 181 233 177 176
4 180 179 231 104
4 207 103 65 211
4 207 103 68 65
4 65 66 103 68
4 103 66 97 93
4 66 103 97 63
4 213 104 63 238
4 238 97 103 63
4 104 102 103 238
4 104 106 212 230
4 214 212 106 230
4 214 212 216 106
4 214 212 217 216
4 214 212 230 217
4 226 217 230 212
4 226 60 230 57
4 181 60 57 230
4 179 105 104 230
4 179 105 101 104
4 104 239 103 101
4 239 101 240 100
4 91 241 240 100
4 241 239 240 100
4 239 241 103 100
4 103 210 93 241
4 103 207 93 210
4 210 103 231 239
4 103 239 104 231
4 103 104 63 65
4 65 66 63 103
4 65 66 68 69
4 68 72 66 93
4 96 98 242 97
4 85 96 99 243
4 85 86 99 74
4 86 89 99 74
4 88 86 244 92
4 74 86 92 87
4 201 244 87 92
4 244 86 87 92
4 90 74 92 94
4 94 95 206 245
4 95 209 206 245
4 245 207 95 209
4 208 232 231 211
4 180 104 231 62
4 181 60 107 57
4 54 175 51 178
4 50 52 174 54
4 246 36 52 247
4 246 36 37 35
4 52 31 36 35
4 31 39 52 36
4 39 46 222 41
4 39 222 174 220
4 174 218 220 221
4 218 219 54 220
4 225 219 220 54
4 56 110 54 57
4 110 56 59 57
4 60 59 226 228
4 60 226 213 228
4 57 217 230 226
4 214 217 230 218
4 218 57 230 177
4 181 105 230 177
4 179 60 181 230
4 58 107 180 60
4 229 107 58 248
4 229 107 180 58
4 60 58 59 62
4 58 107 56 248
4 108 56 109 55
4 108 56 55 248
4 107 56 55 57
4 107 181 57 178
4 57 181 177 178
4 181 176 177 178
4 233 181 177 105
4 249 239 101 240
4 91 89 241 100
4 89 91 241 90
4 210 245 93 241
4 245 241 90 93
4 93 94 90 245
4 74 202 92 94
4 205 204 94 206
4 202 198 199 203
4 202 198 186 199
4 199 197 200 250
4 199 186 187 198
4 200 186 188 187
4 184 189 186 188
4 201 189 87 244
4 189 201 78 186
4 201 78 79 87
4 189 78 184 186
4 186 79 187 198
4 74 201 79 87
4 74 79 84 87
4 79 78 84 87
4 77 78 84 79
4 74 77 84 79
4 74 85 84 76
4 83 243 76 85
4 85 96 243 76
4 73 96 74 76
4 96 93 74 99
4 89 93 99 74
4 93 94 74 90
4 93 94 245 95
4 207 95 68 93
4 95 70 68 93
4 95 70 74 205
4 74 70 182 205
4 94 95 74 205
4 241 89 90 93
4 104 179 231 239
4 181 60 180 107
4 107 57 55 178
4 57 54 55 178
4 53 49 51 52
4 40 49 113 52
4 155 47 223 48
4 45 47 159 156
4 119 156 45 159
4 120 44 119 121
4 16 173 124 154
4 166 167 169 145
4 145 7 147 251
4 9 7 252 149
4 253 254 252 255
4 256 253 255 254
4 6 9 252 255
4 253 257 149 252
4 7 258 259 260
4 260 261 251 170
4 169 260 251 170
4 169 251 167 170
4 166 167 145 171
4 16 22 18 130
4 25 24 20 23
4 24 25 118 28
4 119 156 118 45
4 119 28 45 118
4 119 45 44 158
4 44 38 28 29
4 25 28 26 30
4 25 24 26 28
4 24 20 234 163
4 162 24 234 163
4 163 119 118 25
4 235 135 133 136
4 135 134 140 133
4 145 141 153 144
4 145 260 169 151
4 0 258 4 5
4 259 258 262 263
4 264 259 262 263
4 258 7 262 0
4 260 258 259 261
4 258 261 263 259
4 261 258 263 265
4 261 260 251 259
4 167 251 169 145
4 145 260 251 169
4 166 167 171 168
4 16 171 153 140
4 137 135 136 134
4 138 135 235 136
4 235 138 136 164
4 236 119 156 164
4 157 156 159 47
4 155 47 48 40
4 40 49 48 155
4 46 52 174 48
4 247 225 220 54
4 110 225 57 227
4 60 59 57 226
4 104 61 211 62
4 232 211 62 231
4 103 104 211 231
4 239 210 103 241
4 241 93 103 100
4 68 72 93 70
4 103 207 68 93
4 207 103 211 210
4 210 208 231 211
4 103 210 231 211
4 245 207 210 93
4 245 207 209 210
4 245 207 93 95
4 70 95 74 93
4 70 73 74 182
4 182 203 183 74
4 202 74 205 94
4 93 89 90 74
4 89 241 100 93
4 93 98 103 100
4 101 104 102 103
4 104 101 102 106
4 106 238 104 212
4 266 216 212 106
4 106 238 212 266
4 106 238 102 104
4 267 266 238 102
4 97 102 267 238
4 106 238 266 102
4 97 102 238 103
4 97 102 103 98
4 97 102 98 267
4 97 98 242 267
4 96 98 99 242
4 89 98 99 93
4 239 101 100 103
4 104 179 239 101
4 179 249 239 101
4 105 179 101 249
4 233 105 249 179
4 177 181 57 230
4 175 57 177 178
4 175 237 51 178
4 55 54 51 178
4 112 111 109 53
4 112 53 52 113
4 117 115 113 114
4 116 118 117 161
4 115 116 117 161
4 28 115 161 32
4 29 32 26 34
4 26 30 29 27
4 34 26 29 27
4 29 34 31 32
4 31 115 32 35
4 31 115 28 32
4 246 112 52 35
4 246 247 52 54
4 247 110 225 54
4 59 227 57 226
4 213 104 238 212
4 104 103 63 238
4 97 98 103 93
4 70 73 72 74
4 71 182 268 73
4 182 75 268 73
4 182 75 183 268
4 183 81 268 75
4 182 75 74 183
4 79 81 183 75
4 79 81 80 194
4 78 192 80 82
4 192 193 80 82
4 269 193 192 82
4 193 192 80 185
4 80 79 194 185
4 77 74 75 79
4 85 96 76 74
4 96 243 242 99
4 98 102 103 100
4 104 105 106 230
4 214 218 230 177
4 50 175 51 54
4 49 155 223 48
4 157 156 236 159
4 236 119 159 156
4 235 119 164 136
4 236 119 164 235
4 133 235 120 123
4 120 235 133 119
4 135 123 235 133
4 124 173 123 126
4 173 172 126 154
4 166 171 154 172
4 172 171 154 173
4 171 16 154 173
4 171 166 154 153
4 16 171 154 153
4 124 173 16 133
4 124 173 133 123
4 25 133 119 121
4 19 16 133 21
4 163 19 133 21
4 134 19 133 136
4 133 119 136 163
4 133 19 163 136
4 132 20 18 19
4 20 132 234 19
4 20 19 163 21
4 22 20 21 18
4 16 22 21 18
4 128 129 127 21
4 160 129 21 127
4 160 21 25 127
4 25 20 21 23
4 25 27 23 160
4 25 27 30 26
4 23 22 21 160
4 16 129 21 22
4 128 130 165 270
4 128 130 270 129
4 128 130 16 165
4 16 165 153 154
4 17 16 14 153
4 131 17 18 14
4 17 141 153 15
4 12 10 15 153
4 15 17 14 153
4 153 16 14 130
4 16 129 22 130
4 128 130 129 16
4 16 128 165 154
4 151 166 153 165
4 260 145 7 151
4 9 6 252 7
4 7 262 252 149
4 260 259 7 251
4 7 259 147 251
4 264 259 271 149
4 259 7 147 149
4 146 148 147 149
4 271 259 147 149
4 148 271 147 149
4 146 142 143 141
4 144 141 140 139
4 141 134 140 139
4 143 141 144 139
4 142 145 141 146
4 145 142 141 144
4 148 142 143 146
4 145 7 10 146
4 145 150 151 153
4 151 272 150 7
4 151 272 273 150
4 151 272 4 273
4 4 272 2 273
4 151 272 7 4
4 4 260 7 151
4 166 145 151 153
4 166 145 169 151
4 171 166 153 145
4 133 16 140 173
4 124 16 21 133
4 25 21 160 23
4 21 129 160 22
4 121 21 124 127
4 121 120 133 119
4 123 121 125 120
4 123 121 120 133
4 25 133 121 21
4 25 20 163 21
4 118 24 28 161
4 26 28 161 32
4 40 115 28 31
4 115 52 113 112
4 246 112 109 52
4 246 52 109 54
4 56 54 109 55
4 56 107 55 248
4 58 60 59 57
4 63 61 65 104
4 68 72 70 67
4 182 75 73 74
4 77 79 75 80
4 196 79 185 194
4 79 78 185 80
4 77 78 82 84
4 83 77 82 84
4 77 74 84 76
4 96 74 93 72
4 103 66 93 68
4 65 66 69 63
4 63 61 104 213
4 61 60 104 213
4 59 227 226 228
4 274 110 227 225
4 246 36 247 37
4 246 36 35 52
4 52 115 40 31
4 28 31 38 40
4 44 42 158 45
4 120 44 122 158
4 135 133 140 173
4 171 16 173 140
4 171 144 153 140
4 141 144 140 153
4 10 141 15 153
4 10 12 15 13
4 10 8 12 13
4 8 10 12 11
4 8 9 11 255
4 9 253 149 252
4 257 262 149 252
4 262 259 149 7
4 258 7 4 260
4 259 258 7 262
4 262 0 7 252
4 0 6 7 252
4 254 6 252 255
4 0 3 6 252
4 6 3 254 252
4 272 6 11 7
4 4 6 272 7
4 4 6 2 272
4 9 6 11 255
4 9 253 252 255
4 262 264 257 149
4 257 264 275 271
4 259 264 262 149
4 257 264 271 149
4 9 146 7 149
4 10 7 11 9
4 7 12 10 11
4 145 150 153 12
4 12 145 10 153
4 145 146 10 141
4 145 142 147 146
4 171 145 153 144
4 171 142 145 144
4 142 171 145 167
4 142 145 147 167
4 167 145 147 251
4 145 260 7 251
4 145 150 12 7
4 12 145 7 10
4 12 152 153 14
4 152 153 14 130
4 152 151 153 165
4 165 152 276 270
4 152 151 165 276
4 165 152 270 130
4 152 151 276 150
4 276 150 151 273
4 272 7 11 150
4 7 12 11 150
4 153 150 152 12
4 165 16 153 130
4 165 152 130 153
4 15 12 153 14
4 13 131 14 15
4 17 131 15 14
4 17 132 18 19
4 25 24 163 20
4 25 24 118 163
4 119 156 164 118
4 118 117 45 156
4 155 45 117 156
4 113 40 117 155
4 50 49 224 48
4 49 50 224 51
4 50 237 224 51
4 237 50 175 51
4 52 54 220 174
4 52 247 220 54
4 39 247 220 52
4 39 247 52 36
4 115 52 35 31
4 40 115 52 113
4 40 115 113 117
4 115 112 113 114
4 53 52 51 54
4 54 53 109 55
4 52 53 109 54
4 110 246 109 54
4 247 110 54 246
4 247 110 274 225
4 246 274 37 247
4 247 110 246 274
4 110 225 54 57
4 57 217 226 219
4 57 217 218 230
4 219 218 54 57
4 218 54 174 220
4 46 39 52 40
4 39 31 52 40
4 38 42 45 40
4 28 38 44 45
4 121 25 44 119
4 123 135 173 133
4 134 153 140 16
4 134 16 140 133
4 137 135 134 140
4 134 153 141 140
4 134 153 16 17
4 16 17 19 134
4 134 153 17 141
4 153 145 10 141
4 6 9 11 7
4 258 7 0 4
4 1 0 2 5

CELL_TYPES 734
10
10
10
10
10
10
10
10
10
10
10
10
10
10
10
10
10
10
10
10
10
10
10
10
10
10
10
10
10
10
10
10
10
10
10
10
10
10
10
10
10
10
10
10
10
10
10
10
10
10
10
10
10
10
10
10
10
10
10
10
10
10
10
10
10
10
10
10
10
10
10
10
10
10
10
10
10
10
10
10
10
10
10
10
10
10
10
10
10
10
10
10
10
10
10
10
10
10
10
10
10
10
10
10
10
10
10
10
10
10
10
10
10
10
10
10
10
10
10
10
10
10
10
10
10
10
10
10
10
10
10
10
10
10
10
10
10
10
10
10
10
10
10
10
10
10
10
10
10
10
10
10
10
10
10
10
10
10
10
10
10
10
10
10
10
10
10
10
10
10
10
10
10
10
10
10
10
10
10
10
10
10
10
10
10
10
10
10
10
10
10
10
10
10
10
10
10
10
10
10
10
10
10
10
10
10
10
10
10
10
10
10
10
10
10
10
10
10
10
10
10
10
10
10
10
10
10
10
10
10
10
10
10
10
10
10
10
10
10
10
10
10
10
10
10
10
10
10
10
10
10
10
10
10
10
10
10
10
10
10
10
10
10
10
10
10
10
10
10
10
10
10
10
10
10
10
10
10
10
10
10
10
10
10
10
10
10
10
10
10
10
10
10
10
10
10
10
10
10
10
10
10
10
10
10
10
10
10
10
10
10
10
10
10
10
10
10
10
10
10
10
10
10
10
10
10
10
10
10
10
10
10
10
10
10
10
10
10
10
10
10
10
10
10
10
10
10
10
10
10
10
10
10
10
10
10
10
10
10
10
10
10
10
10
10
10
10
10
10
10
10
10
10
10
10
10
10
10
10
10
10
10
10
10
10
10
10
10
10
10
10
10
10
10
10
10
10
10
10
10
10
10
10
10
10
10
10
10
10
10
10
10
10
10
10
10
10
10
10
10
10
10
10
10
10
10
10
10
10
10
10
10
10
10
10
10
10
10
10
10
10
10
10
10
10
10
10
10
10
10
10
10
10
10
10
10
10
10
10
10
10
10
10
10
10
10
10
10
10
10
10
10
10
10
10
10
10
10
10
10
10
10
10
10
10
10
10
10
10
10
10
10
10
10
10
10
10
10
10
10
10
10
10
10
10
10
10
10
10
10
10
10
10
10
10
10
10
10
10
10
10
10
10
10
10
10
10
10
10
10
10
10
10
10
10
10
10
10
10
10
10
10
10
10
10
10
10
10
10
10
10
10
10
10
10
10
10
10
10
10
10
10
10
10
10
10
10
10
10
10
10
10
10
10
10
10
10
10
10
10
10
10
10
10
10
10
10
10
10
10
10
10
10
10
10
10
10
10
10
10
10
10
10
10
10
10
10
10
10
10
10
10
10
10
10
10
10
10
10
10
10
10
10
10
10
10
10
10
10
10
10
10
10
10
10
10
10
10
10
10
10
10
10
10
10
10
10
10
10
10
10
10
10
10
10
10
10
10
10
10
10
10
10
10
10
10
10
10
10
10
10
10
10
10
10
10
10
10
10
10
10
10
10
10
10
10
10
10
10
10
10
10
10
10
10
10
10
10
10
10
10
10
10
10
10
10
10
10
10
10
10
10
10
10
10
10
10
10
10
10
10
10
10
10
10
10
10
10
10
10
10
10
10
10

CELL_DATA 734
SCALARS potentialEnergy FLOAT 1
LOOKUP_TABLE default
30.150686
29.681133
46.931339
44.712231
74.554466
32.205416
18.639505
97.829979
200.318771
105.021263
115.024338
206.250854
64.975655
149.786194
227.904770
155.182053
80.077133
47.711506
184.835617
62.064953
111.242188
47.099289
35.087326
70.815830
82.373573
117.691360
61.005932
51.934662
43.984886
90.709389
66.133591
60.150387
108.444664
79.211945
69.582138
61.713520
111.602730
37.673029
28.629999
45.693924
144.860870
21.539474
186.170822
31.914886
60.124836
111.794601
102.804749
127.994347
87.344482
63.321552
79.320930
144.560059
201.558701
84.532082
80.446152
27.847906
42.734127
119.962631
139.251801
139.037399
77.995750
170.952133
59.639465
64.407772
77.178940
120.934525
181.111877
226.882629
133.201797
97.081314
22.556032
27.269192
89.985435
148.831436
78.827431
58.376007
140.337067
121.996956
266.794983
249.088699
207.686401
169.977585
126.480293
76.410416
146.050018
45.082256
64.072746
45.142071
77.933891
87.127953
146.776886
78.352196
89.201958
243.026611
87.935867
221.038727
60.757259
238.340469
94.005531
92.770859
40.408739
126.863571
267.459259
111.253525
50.279415
72.855721
80.912659
59.536381
118.265724
126.723160
119.727982
132.845261
175.238831
36.803858
151.494843
258.620422
139.741455
74.059296
64.345547
138.141327
111.840683
439.967621
82.489250
41.646883
50.814999
138.858719
66.910610
230.204178
92.389771
214.435303
99.138428
67.131790
169.557816
105.067757
96.329277
81.235962
50.648643
97.836250
186.626648
104.872475
192.286621
96.116409
183.421844
190.715042
80.634056
102.784302
107.373688
70.085850
98.158409
91.281769
86.183701
180.441803
153.964172
197.337845
81.327713
298.967957
35.975237
375.791321
194.558090
107.612076
232.887878
44.179417
64.772572
192.793335
161.542938
169.328888
186.371078
253.440399
94.728401
131.382111
243.136459
159.344910
194.192795
391.983337
110.899681
96.377853
88.326431
49.464481
71.049297
25.317602
50.441738
163.753983
46.945393
46.787670
72.589668
69.065643
84.635155
140.491196
85.379158
68.854507
164.718079
42.013752
73.778561
226.456833
115.250885
83.485161
49.887489
179.376968
92.499626
134.461067
174.800690
98.853378
48.134777
67.685528
32.826773
34.729080
52.078350
91.850418
45.506561
91.767616
74.941841
84.323341
110.024216
140.313812
140.274200
123.849731
65.880669
22.957070
100.409584
72.750149
118.490784
77.236755
135.887779
30.615225
41.436201
209.482910
109.075020
129.137077
83.000610
109.455956
218.655197
104.295074
46.281353
56.540176
132.684555
59.254578
64.934853
67.773201
56.598274
104.608948
51.935871
142.562302
70.243881
143.411758
134.333374
92.974411
111.941399
106.902237
136.284622
113.346939
90.766899
61.778069
61.071182
68.812756
154.397934
103.136391
48.341743
62.046444
81.329407
91.874420
100.803780
86.769676
181.442047
169.408936
97.482086
27.865623
55.643738
40.922091
68.499035
67.380253
184.106659
112.805641
47.997810
65.398735
140.741684
81.234810
64.694954
48.093044
49.574593
46.097424
90.692757
94.341118
156.718857
51.408329
92.863770
66.783939
54.734962
95.158783
53.353958
51.582466
96.894020
142.171829
180.258438
139.595520
183.911926
60.514805
189.837387
118.961586
117.429794
70.588879
57.614941
100.150948
75.591873
50.028728
63.777534
38.343626
51.097927
121.920914
112.481049
117.615013
145.258774
73.581066
135.189049
99.059303
48.992596
49.240704
64.099628
119.119751
269.740845
172.855911
127.464333
220.574036
86.380241
87.253120
96.065063
52.828751
58.402164
52.938610
94.863091
108.893402
104.668770
35.282824
256.822540
343.092438
125.760033
312.484375
213.086517
85.717407
130.232796
132.662277
106.309113
105.947952
154.449326
142.612701
140.721756
98.060524
71.390846
116.507103
40.733772
27.628216
57.691864
135.346474
167.313980
169.557510
133.234856
85.814507
51.892986
85.281311
58.002422
180.352234
80.762009
148.313431
94.998642
114.366333
143.448929
38.474234
78.414177
105.077728
174.000076
131.132980
20.572080
192.835770
118.109222
69.894764
107.709335
99.754181
28.866520
25.884237
63.264591
48.493191
143.796585
73.887890
31.768194
78.778770
145.448639
173.286285
59.596424
189.342575
229.682281
183.040115
88.037460
215.137451
53.732201
114.891922
172.191589
128.961922
97.591721
319.851990
195.408661
154.830215
49.129860
26.257156
74.117851
54.153717
56.489777
130.507919
60.111343
59.647694
52.262882
50.354454
39.345718
99.441620
106.064240
115.064812
143.149002
90.559570
40.895164
104.397957
209.776627
103.943535
66.892746
175.583557
55.176357
59.088757
116.948418
24.818160
22.099832
58.597694
84.713173
44.813061
179.039352
137.457970
19.309827
54.451698
116.254639
55.311161
120.196609
218.614059
81.824707
192.404831
83.050346
165.139786
56.629017
103.976143
52.771484
123.874542
76.360069
92.189964
42.876728
137.363777
43.954147
48.750694
94.536446
65.560265
38.931723
24.405700
101.589798
47.644257
58.802795
59.593102
120.928291
57.679810
74.018867
92.289909
162.788391
222.000900
67.474449
96.843864
105.644463
209.116852
46.707615
136.894272
116.596397
150.070709
120.461929
147.284653
71.873119
221.039429
106.974480
142.555710
90.236900
87.151047
233.965683
36.884449
58.303429
49.840248
128.987511
154.602356
146.402435
95.663368
43.974209
35.089075
151.472305
136.932335
66.835758
51.056030
38.945690
201.621140
71.153904
71.731998
77.357132
112.729401
70.663105
49.426712
152.102692
79.180046
127.862244
69.368084
48.367077
66.218361
126.136635
29.683647
76.088127
43.705933
120.209671
127.493599
65.832947
78.451569
52.525726
101.041321
130.410774
70.080437
141.992294
180.660812
100.013123
245.836716
104.099602
286.475739
65.422520
107.393188
137.906227
80.016342
112.592880
114.575836
44.359810
64.405399
211.671204
46.010799
37.562981
123.743347
52.397724
202.291962
128.145378
99.445618
54.203320
38.817995
54.836945
63.908337
53.061031
64.640865
36.481432
44.380058
35.888069
116.300056
69.173580
50.481354
59.086651
59.526169
104.830353
58.952232
75.923126
94.902031
72.533573
128.806046
84.621346
46.266766
60.152599
42.871399
71.337624
68.186729
50.380325
59.225986
98.312401
63.738113
25.893744
28.310249
57.065655
22.203626
46.971874
33.777065
106.914764
104.619469
72.721077
73.263203
90.132240
120.331657
289.406525
57.109333
135.459007
15.511955
58.599224
86.200447
89.716461
71.806499
116.113930
188.195984
107.750343
220.254639
180.687775
80.189285
81.693253
210.978897
82.581078
67.911327
36.450317
34.839907
140.162369
80.831070
207.468460
106.236382
89.047295
81.538330
92.124329
103.485718
167.937988
40.624290
42.789513
88.368164
17.824665
98.049545
79.529793
184.013962
265.374420
175.977310
174.027084
60.876778
142.642105
116.882797
136.106552
224.341019
116.398521
25.801497
40.143814
38.079865
51.458904
81.690506
60.944260
98.106163
65.954578
135.933197
43.767990
59.202209
39.166397
63.844906
61.901451
70.510090
72.676632
65.819862
72.625099
50.148739
61.952995
40.861591
87.147942
45.553886
34.594082
67.981087
71.232040
36.778864
63.540531
139.388031
156.039566
178.782349
82.050056
118.283653
77.035080
106.742271
77.779213
81.503845
43.419533
36.159264
59.381310
40.038883
20.606349
39.559967
24.728981
19.397293
53.574314
38.065231
64.338249
55.627724
43.294273
56.464989
80.551224
104.804306
121.895485
93.079185
398.492493
135.744743
108.674110
102.399612
111.273247
107.243774
61.893612
43.220345
40.619703
33.422930
136.649475
72.187695
82.743607
126.880684
228.341217
198.395905
178.663498
40.945543
146.471237
143.287338
108.238678
168.100266
264.761200
129.445503
155.372589
150.911957
84.661987
76.183136
210.308975
34.296518
152.894989
145.820374
177.233582
177.511261
208.409348
107.121658
109.884117
180.832809
232.022949
99.414307
169.695984
176.474457
220.181198
130.840302
204.375259
131.455849
65.706192
25.830840

