# vtk DataFile Version 3.1
Tetrahedral Mesh Visualization
ASCII
DATASET UNSTRUCTURED_GRID

POINTS 277 FLOAT
0.000000 1.378113 1.754166
0.000000 0.000000 0.000000
1.999328 -0.002264 -0.010057
0.000000 1.666667 0.000000
2.423073 -0.004161 1.721460
0.000000 0.000000 1.666667
1.694140 2.464270 -0.008335
2.998833 2.449564 2.306606
3.999442 4.987092 -0.031160
3.074049 4.995684 1.623080
5.209435 4.999434 1.578923
3.491740 3.170645 -0.017244
5.411661 3.301422 -0.022652
6.004020 4.996577 -0.028477
7.370593 3.336913 -0.013532
6.970344 5.008819 1.302648
9.251030 2.173471 2.014445
8.695809 5.001477 1.591700
9.349512 3.327689 -0.020920
10.658521 4.990479 1.627128
11.350410 3.329286 -0.025124
11.113412 1.862469 1.534889
10.674025 1.664151 -0.017418
12.680704 1.671252 -0.014953
13.354537 3.333890 -0.011602
12.975748 1.881115 1.481306
14.681537 1.658209 0.002616
14.005727 -0.003541 -0.003273
15.472456 2.129937 1.696872
15.326952 -0.010668 1.662111
13.327447 0.002563 1.657234
17.297127 -0.012735 1.640282
16.692720 1.653925 0.031212
18.034868 -0.010820 0.051648
16.019890 -0.006303 0.016147
18.711609 1.651607 0.068699
19.022543 -0.011590 1.392010
20.041620 -0.021632 0.095178
16.717085 -0.011060 3.317764
18.984890 -0.007965 3.173838
17.696386 2.681375 2.982634
17.955658 -0.006046 5.037799
16.649851 1.667540 5.016671
15.968844 -0.001517 5.007732
14.668657 -0.000313 3.329509
15.763885 2.887635 3.362246
18.688065 1.698089 5.054770
17.280638 3.350954 5.025515
19.243704 3.392790 5.065959
19.323515 4.998222 3.400839
20.954617 3.667239 5.106882
21.318604 4.987341 3.443233
19.629131 2.484762 2.433716
20.680984 4.983501 1.759811
21.912016 2.494933 2.605505
22.680197 4.976585 1.802334
23.347185 3.363204 0.159523
23.970999 2.431777 2.485846
25.056940 3.638501 0.201808
25.053719 1.854250 0.210619
25.993505 2.465037 1.973405
27.323683 1.638178 0.283568
26.762081 3.326683 0.248586
29.280891 -0.042337 1.978892
28.064714 -0.063534 0.324790
29.365938 1.621151 0.363714
31.004633 -0.046711 1.740499
32.060520 -0.048124 0.460307
31.360378 1.613718 0.425690
30.058243 -0.048747 0.386654
33.324551 1.611820 0.468651
34.054855 -0.041474 0.502266
32.699997 -0.037951 2.085685
34.610214 -0.027315 2.203994
34.985447 2.386598 3.039531
36.512779 -0.016902 2.357996
35.126293 -0.003634 3.918450
36.814743 0.004489 4.086131
38.259449 2.525285 5.520992
37.686317 2.155271 2.706689
38.296715 -0.007005 3.079732
38.026867 -0.027969 0.546973
37.966152 0.000825 5.540417
35.964325 0.016911 5.543909
36.524265 1.755985 5.525508
34.888897 1.343383 5.510194
34.801231 3.132828 5.484885
36.718952 3.487063 5.508856
33.937145 4.992693 5.463775
32.640396 3.278432 5.443179
33.248402 4.975914 3.802464
31.935352 4.969064 5.432643
35.138367 4.990303 3.885958
32.199902 2.563297 2.864065
34.595009 4.977417 2.181584
32.677597 3.286735 0.443301
33.189400 -0.023284 3.800810
30.963470 -0.031725 3.528708
31.250528 1.635706 5.412029
33.192791 1.587602 5.470374
30.606836 3.305121 5.395304
28.598318 3.301466 5.327232
29.258276 1.634402 5.352016
30.009027 2.463576 2.857789
27.948400 2.456020 2.784651
26.600519 3.307724 5.259091
27.258175 1.638440 5.288474
24.683184 4.965563 1.858145
22.054699 4.963217 0.118215
21.383244 3.313818 0.115228
22.787600 1.678962 0.148856
20.047970 4.970295 0.080230
19.377102 3.314988 0.079994
18.676970 4.994236 1.726095
18.041906 4.989108 0.054552
17.368082 3.320706 0.040887
16.033072 4.983746 0.014305
16.670279 4.991845 1.687347
14.669665 4.996291 1.657304
13.689139 2.972443 3.257810
12.982594 1.335639 4.990271
12.663217 0.001060 3.325337
13.978667 0.013242 5.007131
11.269858 1.613464 4.977508
10.653115 -0.004777 3.314534
11.990077 0.000919 4.989495
9.992981 0.002342 4.984184
11.330521 0.001745 1.649064
9.305449 -0.004679 1.659223
9.998561 -0.002253 -0.012304
8.685953 1.661712 -0.012180
8.009083 5.006477 -0.018318
10.005941 4.992312 -0.026537
11.222919 2.638111 3.260223
9.254392 4.996322 3.280438
10.741938 3.311585 4.977201
11.305086 5.001001 3.290997
10.006557 5.000119 4.975059
11.989901 5.016627 4.968343
8.001034 5.008384 4.978940
8.741939 3.395909 4.985369
6.961003 5.008512 3.091661
5.356212 3.376258 4.978877
5.993306 5.010452 4.977654
7.028803 3.695741 4.981736
5.138561 2.370323 3.118474
4.618534 4.996378 3.261547
3.487373 3.196916 4.984054
3.999564 5.006555 4.974389
2.369255 4.997103 3.260945
4.845851 1.600727 -0.017176
4.910563 -0.006659 1.857738
6.729393 1.659232 -0.011645
7.011518 2.572115 2.181204
8.644470 0.001547 3.332632
17.325598 5.007206 3.356661
15.326810 5.011563 3.328841
15.976012 5.021351 5.003919
14.686014 1.620863 5.004618
15.242020 3.317497 5.002863
12.005940 0.006480 -0.017379
15.361430 3.318090 0.011194
14.026323 4.993374 -0.014222
12.661850 5.005057 1.637790
13.320456 5.011950 3.309421
7.238940 0.005342 1.690206
6.662189 0.010912 3.376410
4.908800 1.654251 4.984332
5.993362 0.014482 4.995449
4.909903 0.001417 3.648467
3.997118 0.005898 4.989752
7.047780 1.905089 4.988698
7.991075 0.016573 4.998830
9.273568 1.696344 4.983936
20.946259 1.875022 5.109790
22.655819 3.371023 5.157588
23.944313 4.972356 5.181254
24.610678 3.315635 5.209218
23.309841 4.974963 3.494132
27.302971 4.966692 3.604955
26.679337 4.947249 1.910274
25.308445 4.971271 3.549505
35.194614 1.576719 0.502486
36.866032 1.429391 0.521818
39.978947 3.241237 4.142772
39.991798 1.619432 3.139315
38.295704 4.987433 3.041813
40.004665 3.234107 2.418501
39.979412 4.994940 3.846039
37.964775 5.002510 5.510681
39.965248 4.996680 5.513301
39.962654 3.334461 5.523086
39.965691 1.676673 5.548810
39.983219 0.000361 3.896090
40.004246 -0.015419 2.227246
40.018246 -0.025916 0.555161
40.020283 1.639908 0.540422
40.009033 3.308904 0.517139
38.329803 2.444295 0.521352
38.009602 4.980139 0.513962
39.998425 4.984195 2.178851
36.816238 4.998960 4.048961
36.504246 4.984362 2.321880
36.534454 3.154836 0.502956
36.020031 4.985664 0.499349
34.629631 3.279022 0.484761
34.028435 4.972409 0.473552
30.702394 3.288212 0.406053
30.050611 4.955986 0.381308
32.038216 4.961966 0.428341
30.664961 4.963513 2.067783
28.714487 3.296283 0.340032
26.693176 -0.033478 3.659812
27.270723 -0.038335 1.980559
25.252245 1.637604 5.222805
23.936111 -0.026462 5.183640
25.929976 -0.034858 5.250731
24.964117 -0.028228 3.887301
23.205769 1.677254 5.166155
23.246670 -0.017456 3.547299
21.242733 -0.014084 3.426175
21.941420 -0.022679 5.132473
19.943893 -0.012556 5.085758
17.967279 5.015896 5.033253
19.967333 4.990695 5.088871
22.748779 -0.013866 1.836709
25.003181 -0.025062 2.098785
24.050688 -0.023097 0.181406
26.054670 -0.039141 0.242982
26.065527 4.943161 0.222624
25.673962 2.203875 3.723639
28.672897 4.965520 1.996405
28.056019 4.945415 0.296975
25.941885 4.977526 5.234657
12.012779 4.994846 -0.031263
12.987624 3.134915 4.982404
13.987822 5.027517 4.982924
21.953905 4.984461 5.133457
28.700796 -0.035236 3.651081
29.298323 4.965714 3.685631
29.928949 4.975543 5.370339
31.289200 4.962420 3.749832
31.935783 -0.017101 5.443734
33.957436 0.000781 5.502798
35.953819 4.998207 5.498464
32.642933 4.968582 2.112720
20.732618 1.645700 0.108591
20.740271 -0.020358 1.721678
24.064432 4.962373 0.170844
27.928997 4.967547 5.298780
40.002254 4.975387 0.503946
3.184560 1.471643 4.985668
0.000000 3.103853 1.750106
0.000000 5.000000 1.666667
0.000000 3.333333 0.000000
1.998983 4.995162 -0.017305
0.000000 5.000000 0.000000
0.000000 5.000000 3.333333
0.000000 0.000000 3.333333
1.699699 2.471955 4.989831
3.040727 0.000168 3.374506
2.002431 0.003423 4.987926
0.000000 2.403264 3.370902
0.000000 1.666667 5.000000
0.000000 3.333333 5.000000
0.000000 0.000000 5.000000
27.926378 -0.031460 5.315784
29.931055 -0.030422 5.375674
36.037643 -0.029716 0.531292
39.961468 0.002859 5.558215
7.996694 0.000830 -0.007027
2.001360 4.997953 4.985755
3.164897 1.446892 -0.013152
4.003067 -0.009949 -0.012227
22.050224 -0.017921 0.129844
0.000000 5.000000 5.000000
6.010109 0.000456 -0.014430

CELLS 734 3670
4 0 1 2 3
4 0 4 2 5
4 0 3 2 6
4 4 6 0 2
4 4 6 7 0
4 8 9 10 11
4 12 13 14 15
4 16 17 14 18
4 19 20 18 21
4 20 22 21 23
4 24 25 26 23
4 25 27 26 23
4 26 28 29 30
4 28 29 31 32
4 33 34 32 31
4 31 33 35 32
4 31 33 36 35
4 33 37 36 35
4 38 39 40 31
4 41 42 43 38
4 44 42 45 38
4 44 42 38 43
4 46 38 42 41
4 46 47 40 48
4 49 50 51 52
4 53 54 51 55
4 56 54 55 57
4 56 58 59 57
4 60 59 61 62
4 63 61 64 65
4 66 67 68 69
4 67 70 71 72
4 73 74 75 76
4 74 77 75 76
4 77 78 79 80
4 79 81 75 80
4 77 78 80 82
4 77 83 76 84
4 83 85 76 84
4 85 86 74 84
4 74 86 87 84
4 88 89 86 90
4 91 89 88 90
4 86 88 90 92
4 90 86 92 74
4 86 89 74 90
4 93 94 95 74
4 70 74 72 93
4 70 73 71 72
4 74 96 73 72
4 66 97 93 72
4 96 97 72 93
4 96 98 97 93
4 85 96 74 99
4 96 98 93 99
4 98 89 100 93
4 101 102 100 103
4 104 105 101 106
4 107 58 57 60
4 58 107 57 56
4 53 108 109 55
4 56 110 109 54
4 53 111 109 108
4 112 53 109 52
4 111 112 113 53
4 112 111 113 114
4 115 116 114 117
4 40 28 115 117
4 45 117 118 28
4 119 28 25 44
4 120 44 121 122
4 123 121 124 125
4 125 123 126 124
4 127 128 21 124
4 16 129 128 21
4 16 18 14 130
4 16 17 18 19
4 131 17 132 18
4 16 19 18 21
4 133 16 19 134
4 135 134 133 136
4 135 137 136 138
4 137 134 139 140
4 141 142 143 144
4 145 146 147 7
4 142 148 147 146
4 7 146 147 149
4 10 7 9 146
4 145 150 7 151
4 152 151 150 153
4 16 128 154 124
4 124 21 121 133
4 25 28 30 44
4 28 38 45 40
4 45 47 40 42
4 155 45 156 47
4 157 156 47 155
4 155 45 40 117
4 45 42 158 159
4 44 42 43 158
4 119 45 158 159
4 120 44 158 119
4 25 127 21 121
4 25 27 160 30
4 127 25 160 30
4 25 127 121 30
4 44 25 121 30
4 28 30 44 29
4 119 28 44 45
4 119 28 118 25
4 28 24 26 161
4 26 32 29 28
4 28 31 29 38
4 46 38 41 39
4 46 38 39 40
4 28 117 40 45
4 118 28 117 161
4 162 24 118 161
4 118 119 163 164
4 136 119 164 163
4 25 133 21 163
4 128 16 21 124
4 165 166 153 154
4 166 167 168 169
4 167 168 169 170
4 171 168 172 166
4 124 173 126 154
4 123 121 133 124
4 120 125 122 121
4 122 158 44 43
4 47 46 40 42
4 52 50 174 48
4 175 50 174 54
4 176 175 177 178
4 179 60 180 181
4 64 69 63 65
4 68 72 67 66
4 70 73 182 71
4 74 79 183 75
4 184 78 185 79
4 79 184 186 187
4 186 184 188 187
4 184 189 190 191
4 184 78 79 186
4 78 189 184 191
4 189 184 190 188
4 184 78 191 192
4 184 78 192 185
4 192 78 80 185
4 193 80 194 185
4 195 81 196 194
4 81 79 196 194
4 197 187 196 198
4 187 79 185 196
4 79 184 187 185
4 197 199 187 198
4 199 197 187 200
4 199 200 187 186
4 78 201 79 186
4 189 201 87 78
4 202 201 79 74
4 201 74 92 87
4 201 202 92 74
4 201 202 79 186
4 202 203 74 79
4 202 198 203 79
4 204 202 199 203
4 202 203 205 74
4 202 204 205 203
4 182 203 74 205
4 74 203 183 79
4 79 203 183 198
4 79 81 198 183
4 81 79 198 196
4 187 79 196 198
4 202 198 79 186
4 202 204 94 205
4 94 95 205 206
4 207 208 209 210
4 208 207 211 210
4 104 103 211 65
4 104 60 212 213
4 214 215 216 217
4 218 219 220 221
4 222 174 220 221
4 46 39 222 174
4 52 46 40 48
4 40 49 52 48
4 53 49 52 113
4 40 49 155 113
4 155 45 47 40
4 157 47 223 155
4 49 223 224 48
4 52 50 51 54
4 175 54 57 178
4 218 175 54 57
4 225 219 54 57
4 218 175 57 177
4 57 217 219 218
4 219 225 226 57
4 225 227 226 57
4 59 110 57 227
4 59 60 61 228
4 61 60 213 228
4 64 61 213 228
4 63 61 213 64
4 61 104 211 65
4 180 60 104 62
4 58 229 62 180
4 58 60 180 62
4 60 61 104 62
4 60 226 230 212
4 226 60 213 212
4 60 104 212 230
4 179 60 230 104
4 104 211 231 62
4 180 229 62 232
4 180 232 62 231
4 179 60 104 180
4 233 181 105 179
4 181 105 179 230
4 105 214 106 230
4 105 214 230 177
4 215 214 218 217
4 215 217 218 219
4 218 215 219 221
4 218 175 174 54
4 39 52 220 174
4 39 46 52 174
4 115 52 112 35
4 28 115 117 161
4 162 118 116 161
4 24 162 118 163
4 20 19 234 163
4 25 133 163 119
4 120 119 158 235
4 236 119 235 159
4 235 119 158 159
4 119 235 133 136
4 138 235 236 164
4 45 47 42 159
4 46 38 40 42
4 49 50 52 48
4 237 175 176 178
4 181 233 177 176
4 180 179 231 104
4 207 103 65 211
4 207 103 68 65
4 65 66 103 68
4 103 66 97 93
4 66 103 97 63
4 213 104 63 238
4 238 97 103 63
4 104 102 103 238
4 104 106 212 230
4 214 212 106 230
4 214 212 216 106
4 214 212 217 216
4 214 212 230 217
4 226 217 230 212
4 226 60 230 57
4 181 60 57 230
4 179 105 104 230
4 179 105 101 104
4 104 239 103 101
4 239 101 240 100
4 91 241 240 100
4 241 239 240 100
4 239 241 103 100
4 103 210 93 241
4 103 207 93 210
4 210 103 231 239
4 103 239 104 231
4 103 104 63 65
4 65 66 63 103
4 65 66 68 69
4 68 72 66 93
4 96 98 242 97
4 85 96 99 243
4 85 86 99 74
4 86 89 99 74
4 88 86 244 92
4 74 86 92 87
4 201 244 87 92
4 244 86 87 92
4 90 74 92 94
4 94 95 206 245
4 95 209 206 245
4 245 207 95 209
4 208 232 231 211
4 180 104 231 62
4 181 60 107 57
4 54 175 51 178
4 50 52 174 54
4 246 36 52 247
4 246 36 37 35
4 52 31 36 35
4 31 39 52 36
4 39 46 222 41
4 39 222 174 220
4 174 218 220 221
4 218 219 54 220
4 225 219 220 54
4 56 110 54 57
4 110 56 59 57
4 60 59 226 228
4 60 226 213 228
4 57 217 230 226
4 214 217 230 218
4 218 57 230 177
4 181 105 230 177
4 179 60 181 230
4 58 107 180 60
4 229 107 58 248
4 229 107 180 58
4 60 58 59 62
4 58 107 56 248
4 108 56 109 55
4 108 56 55 248
4 107 56 55 57
4 107 181 57 178
4 57 181 177 178
4 181 176 177 178
4 233 181 177 105
4 249 239 101 240
4 91 89 241 100
4 89 91 241 90
4 210 245 93 241
4 245 241 90 93
4 93 94 90 245
4 74 202 92 94
4 205 204 94 206
4 202 198 199 203
4 202 198 186 199
4 199 197 200 250
4 199 186 187 198
4 200 186 188 187
4 184 189 186 188
4 201 189 87 244
4 189 201 78 186
4 201 78 79 87
4 189 78 184 186
4 186 79 187 198
4 74 201 79 87
4 74 79 84 87
4 79 78 84 87
4 77 78 84 79
4 74 77 84 79
4 74 85 84 76
4 83 243 76 85
4 85 96 243 76
4 73 96 74 76
4 96 93 74 99
4 89 93 99 74
4 93 94 74 90
4 93 94 245 95
4 207 95 68 93
4 95 70 68 93
4 95 70 74 205
4 74 70 182 205
4 94 95 74 205
4 241 89 90 93
4 104 179 231 239
4 181 60 180 107
4 107 57 55 178
4 57 54 55 178
4 53 49 51 52
4 40 49 113 52
4 155 47 223 48
4 45 47 159 156
4 119 156 45 159
4 120 44 119 121
4 16 173 124 154
4 166 167 169 145
4 145 7 147 251
4 9 7 252 149
4 253 254 252 255
4 256 253 255 254
4 6 9 252 255
4 253 257 149 252
4 7 258 259 260
4 260 261 251 170
4 169 260 251 170
4 169 251 167 170
4 166 167 145 171
4 16 22 18 130
4 25 24 20 23
4 24 25 118 28
4 119 156 118 45
4 119 28 45 118
4 119 45 44 158
4 44 38 28 29
4 25 28 26 30
4 25 24 26 28
4 24 20 234 163
4 162 24 234 163
4 163 119 118 25
4 235 135 133 136
4 135 134 140 133
4 145 141 153 144
4 145 260 169 151
4 0 258 4 5
4 259 258 262 263
4 264 259 262 263
4 258 7 262 0
4 260 258 259 261
4 258 261 263 259
4 261 258 263 265
4 261 260 251 259
4 167 251 169 145
4 145 260 251 169
4 166 167 171 168
4 16 171 153 140
4 137 135 136 134
4 138 135 235 136
4 235 138 136 164
4 236 119 156 164
4 157 156 159 47
4 155 47 48 40
4 40 49 48 155
4 46 52 174 48
4 247 225 220 54
4 110 225 57 227
4 60 59 57 226
4 104 61 211 62
4 232 211 62 231
4 103 104 211 231
4 239 210 103 241
4 241 93 103 100
4 68 72 93 70
4 103 207 68 93
4 207 103 211 210
4 210 208 231 211
4 103 210 231 211
4 245 207 210 93
4 245 207 209 210
4 245 207 93 95
4 70 95 74 93
4 70 73 74 182
4 182 203 183 74
4 202 74 205 94
4 93 89 90 74
4 89 241 100 93
4 93 98 103 100
4 101 104 102 103
4 104 101 102 106
4 106 238 104 212
4 266 216 212 106
4 106 238 212 266
4 106 238 102 104
4 267 266 238 102
4 97 102 267 238
4 106 238 266 102
4 97 102 238 103
4 97 102 103 98
4 97 102 98 267
4 97 98 242 267
4 96 98 99 242
4 89 98 99 93
4 239 101 100 103
4 104 179 239 101
4 179 249 239 101
4 105 179 101 249
4 233 105 249 179
4 177 181 57 230
4 175 57 177 178
4 175 237 51 178
4 55 54 51 178
4 112 111 109 53
4 112 53 52 113
4 117 115 113 114
4 116 118 117 161
4 115 116 117 161
4 28 115 161 32
4 29 32 26 34
4 26 30 29 27
4 34 26 29 27
4 29 34 31 32
4 31 115 32 35
4 31 115 28 32
4 246 112 52 35
4 246 247 52 54
4 247 110 225 54
4 59 227 57 226
4 213 104 238 212
4 104 103 63 238
4 97 98 103 93
4 70 73 72 74
4 71 182 268 73
4 182 75 268 73
4 182 75 183 268
4 183 81 268 75
4 182 75 74 183
4 79 81 183 75
4 79 81 80 194
4 78 192 80 82
4 192 193 80 82
4 269 193 192 82
4 193 192 80 185
4 80 79 194 185
4 77 74 75 79
4 85 96 76 74
4 96 243 242 99
4 98 102 103 100
4 104 105 106 230
4 214 218 230 177
4 50 175 51 54
4 49 155 223 48
4 157 156 236 159
4 236 119 159 156
4 235 119 164 136
4 236 119 164 235
4 133 235 120 123
4 120 235 133 119
4 135 123 235 133
4 124 173 123 126
4 173 172 126 154
4 166 171 154 172
4 172 171 154 173
4 171 16 154 173
4 171 166 154 153
4 16 171 154 153
4 124 173 16 133
4 124 173 133 123
4 25 133 119 121
4 19 16 133 21
4 163 19 133 21
4 134 19 133 136
4 133 119 136 163
4 133 19 163 136
4 132 20 18 19
4 20 132 234 19
4 20 19 163 21
4 22 20 21 18
4 16 22 21 18
4 128 129 127 21
4 160 129 21 127
4 160 21 25 127
4 25 20 21 23
4 25 27 23 160
4 25 27 30 26
4 23 22 21 160
4 16 129 21 22
4 128 130 165 270
4 128 130 270 129
4 128 130 16 165
4 16 165 153 154
4 17 16 14 153
4 131 17 18 14
4 17 141 153 15
4 12 10 15 153
4 15 17 14 153
4 153 16 14 130
4 16 129 22 130
4 128 130 129 16
4 16 128 165 154
4 151 166 153 165
4 260 145 7 151
4 9 6 252 7
4 7 262 252 149
4 260 259 7 251
4 7 259 147 251
4 264 259 271 149
4 259 7 147 149
4 146 148 147 149
4 271 259 147 149
4 148 271 147 149
4 146 142 143 141
4 144 141 140 139
4 141 134 140 139
4 143 141 144 139
4 142 145 141 146
4 145 142 141 144
4 148 142 143 146
4 145 7 10 146
4 145 150 151 153
4 151 272 150 7
4 151 272 273 150
4 151 272 4 273
4 4 272 2 273
4 151 272 7 4
4 4 260 7 151
4 166 145 151 153
4 166 145 169 151
4 171 166 153 145
4 133 16 140 173
4 124 16 21 133
4 25 21 160 23
4 21 129 160 22
4 121 21 124 127
4 121 120 133 119
4 123 121 125 120
4 123 121 120 133
4 25 133 121 21
4 25 20 163 21
4 118 24 28 161
4 26 28 161 32
4 40 115 28 31
4 115 52 113 112
4 246 112 109 52
4 246 52 109 54
4 56 54 109 55
4 56 107 55 248
4 58 60 59 57
4 63 61 65 104
4 68 72 70 67
4 182 75 73 74
4 77 79 75 80
4 196 79 185 194
4 79 78 185 80
4 77 78 82 84
4 83 77 82 84
4 77 74 84 76
4 96 74 93 72
4 103 66 93 68
4 65 66 69 63
4 63 61 104 213
4 61 60 104 213
4 59 227 226 228
4 274 110 227 225
4 246 36 247 37
4 246 36 35 52
4 52 115 40 31
4 28 31 38 40
4 44 42 158 45
4 120 44 122 158
4 135 133 140 173
4 171 16 173 140
4 171 144 153 140
4 141 144 140 153
4 10 141 15 153
4 10 12 15 13
4 10 8 12 13
4 8 10 12 11
4 8 9 11 255
4 9 253 149 252
4 257 262 149 252
4 262 259 149 7
4 258 7 4 260
4 259 258 7 262
4 262 0 7 252
4 0 6 7 252
4 254 6 252 255
4 0 3 6 252
4 6 3 254 252
4 272 6 11 7
4 4 6 272 7
4 4 6 2 272
4 9 6 11 255
4 9 253 252 255
4 262 264 257 149
4 257 264 275 271
4 259 264 262 149
4 257 264 271 149
4 9 146 7 149
4 10 7 11 9
4 7 12 10 11
4 145 150 153 12
4 12 145 10 153
4 145 146 10 141
4 145 142 147 146
4 171 145 153 144
4 171 142 145 144
4 142 171 145 167
4 142 145 147 167
4 167 145 147 251
4 145 260 7 251
4 145 150 12 7
4 12 145 7 10
4 12 152 153 14
4 152 153 14 130
4 152 151 153 165
4 165 152 276 270
4 152 151 165 276
4 165 152 270 130
4 152 151 276 150
4 276 150 151 273
4 272 7 11 150
4 7 12 11 150
4 153 150 152 12
4 165 16 153 130
4 165 152 130 153
4 15 12 153 14
4 13 131 14 15
4 17 131 15 14
4 17 132 18 19
4 25 24 163 20
4 25 24 118 163
4 119 156 164 118
4 118 117 45 156
4 155 45 117 156
4 113 40 117 155
4 50 49 224 48
4 49 50 224 51
4 50 237 224 51
4 237 50 175 51
4 52 54 220 174
4 52 247 220 54
4 39 247 220 52
4 39 247 52 36
4 115 52 35 31
4 40 115 52 113
4 40 115 113 117
4 115 112 113 114
4 53 52 51 54
4 54 53 109 55
4 52 53 109 54
4 110 246 109 54
4 247 110 54 246
4 247 110 274 225
4 246 274 37 247
4 247 110 246 274
4 110 225 54 57
4 57 217 226 219
4 57 217 218 230
4 219 218 54 57
4 218 54 174 220
4 46 39 52 40
4 39 31 52 40
4 38 42 45 40
4 28 38 44 45
4 121 25 44 119
4 123 135 173 133
4 134 153 140 16
4 134 16 140 133
4 137 135 134 140
4 134 153 141 140
4 134 153 16 17
4 16 17 19 134
4 134 153 17 141
4 153 145 10 141
4 6 9 11 7
4 258 7 0 4
4 1 0 2 5

CELL_TYPES 734
10
10
10
10
10
10
10
10
10
10
10
10
10
10
10
10
10
10
10
10
10
10
10
10
10
10
10
10
10
10
10
10
10
10
10
10
10
10
10
10
10
10
10
10
10
10
10
10
10
10
10
10
10
10
10
10
10
10
10
10
10
10
10
10
10
10
10
10
10
10
10
10
10
10
10
10
10
10
10
10
10
10
10
10
10
10
10
10
10
10
10
10
10
10
10
10
10
10
10
10
10
10
10
10
10
10
10
10
10
10
10
10
10
10
10
10
10
10
10
10
10
10
10
10
10
10
10
10
10
10
10
10
10
10
10
10
10
10
10
10
10
10
10
10
10
10
10
10
10
10
10
10
10
10
10
10
10
10
10
10
10
10
10
10
10
10
10
10
10
10
10
10
10
10
10
10
10
10
10
10
10
10
10
10
10
10
10
10
10
10
10
10
10
10
10
10
10
10
10
10
10
10
10
10
10
10
10
10
10
10
10
10
10
10
10
10
10
10
10
10
10
10
10
10
10
10
10
10
10
10
10
10
10
10
10
10
10
10
10
10
10
10
10
10
10
10
10
10
10
10
10
10
10
10
10
10
10
10
10
10
10
10
10
10
10
10
10
10
10
10
10
10
10
10
10
10
10
10
10
10
10
10
10
10
10
10
10
10
10
10
10
10
10
10
10
10
10
10
10
10
10
10
10
10
10
10
10
10
10
10
10
10
10
10
10
10
10
10
10
10
10
10
10
10
10
10
10
10
10
10
10
10
10
10
10
10
10
10
10
10
10
10
10
10
10
10
10
10
10
10
10
10
10
10
10
10
10
10
10
10
10
10
10
10
10
10
10
10
10
10
10
10
10
10
10
10
10
10
10
10
10
10
10
10
10
10
10
10
10
10
10
10
10
10
10
10
10
10
10
10
10
10
10
10
10
10
10
10
10
10
10
10
10
10
10
10
10
10
10
10
10
10
10
10
10
10
10
10
10
10
10
10
10
10
10
10
10
10
10
10
10
10
10
10
10
10
10
10
10
10
10
10
10
10
10
10
10
10
10
10
10
10
10
10
10
10
10
10
10
10
10
10
10
10
10
10
10
10
10
10
10
10
10
10
10
10
10
10
10
10
10
10
10
10
10
10
10
10
10
10
10
10
10
10
10
10
10
10
10
10
10
10
10
10
10
10
10
10
10
10
10
10
10
10
10
10
10
10
10
10
10
10
10
10
10
10
10
10
10
10
10
10
10
10
10
10
10
10
10
10
10
10
10
10
10
10
10
10
10
10
10
10
10
10
10
10
10
10
10
10
10
10
10
10
10
10
10
10
10
10
10
10
10
10
10
10
10
10
10
10
10
10
10
10
10
10
10
10
10
10
10
10
10
10
10
10
10
10
10
10
10
10
10
10
10
10
10
10
10
10
10
10
10
10
10
10
10
10
10
10
10
10
10
10
10
10
10
10
10
10
10
10
10
10
10
10
10
10
10
10
10
10
10
10
10
10
10
10
10
10
10
10
10
10
10
10
10
10
10
10
10
10
10
10
10
10
10
10
10
10
10
10
10
10
10
10
10
10
10
10
10
10
10
10
10
10
10
10
10
10
10
10
10
10
10
10
10
10
10
10
10
10
10
10
10
10
10
10
10
10
10
10
10
10
10
10
10
10
10
10
10
10
10
10

CELL_DATA 734
SCALARS potentialEnergy FLOAT 1
LOOKUP_TABLE default
27.775393
34.548763
36.623707
40.231525
94.833481
55.961819
30.167225
100.840317
143.947662
119.492920
55.760521
34.647552
33.281933
111.811974
134.125282
159.915344
97.279572
66.936337
86.191139
122.389580
111.460907
172.953598
193.064133
149.279922
85.309563
27.129923
57.717369
75.554245
296.383820
267.479950
68.430897
81.853912
108.565681
61.888206
162.704529
130.749634
193.176956
136.166206
100.303329
120.486931
185.915115
58.945488
79.213493
72.754570
212.230286
251.425644
63.128700
137.583946
170.280197
60.626930
199.019302
114.772179
154.268784
216.168106
247.065155
156.030167
226.944427
141.079941
100.749023
74.658379
82.198845
97.069557
56.898167
149.895874
56.701321
96.502411
110.117378
165.151855
250.938492
104.205864
68.226788
53.434612
39.881865
124.815872
66.725872
52.705452
133.077782
57.642834
107.240288
109.206200
152.326645
189.258240
55.884960
26.134445
50.814404
19.707715
63.046883
40.827236
43.668514
44.625294
108.605164
86.793396
51.977898
158.104645
169.630005
86.417419
58.729561
111.661499
153.947144
72.777504
102.459023
179.385330
70.679375
25.383311
169.033676
85.417900
73.916962
35.782845
130.906456
76.834595
61.807976
124.540169
103.988876
71.399467
91.232857
89.155235
155.749039
83.544922
59.074493
66.515110
103.613670
93.561325
49.599339
55.827442
74.110863
35.199804
29.183624
64.064354
124.233727
116.759560
160.167877
66.488628
135.453583
74.073578
170.699020
94.012955
79.897186
149.992508
157.690308
101.001442
179.314697
110.632980
75.940704
211.117828
73.858669
63.892433
204.912918
119.714592
108.132065
36.364416
119.301697
97.550873
147.329651
96.167717
81.316185
176.741608
82.900307
85.063995
161.132553
28.842974
46.051914
59.857224
28.549482
56.305233
198.417694
86.613892
195.500626
250.740067
217.754395
161.704269
90.623405
68.538345
89.229469
124.714371
54.988400
129.352936
68.520428
127.871941
119.087029
111.680099
202.915039
105.300316
122.984993
27.184324
25.446234
105.159851
55.637875
77.778519
51.033459
159.155350
79.261276
131.978416
118.142555
139.782776
193.637436
73.698643
20.770876
57.267879
95.306374
54.463501
76.346100
122.190804
195.859024
198.897430
230.946869
64.763130
240.386307
174.827133
85.298775
160.536514
124.223083
182.451843
193.171432
118.356537
118.390129
699.006409
157.634491
304.226318
128.857315
52.006485
59.949543
141.710693
63.469364
54.039360
56.735065
105.097694
62.133221
46.918945
214.715881
101.521011
91.516182
175.150452
35.094540
74.969963
243.507141
173.238449
117.718704
147.231628
65.340488
54.786652
128.868225
268.786926
124.700348
113.172829
33.315102
400.052917
99.037071
110.464867
95.879951
89.318962
126.072212
151.366104
148.471985
326.783875
168.733215
117.123344
90.192375
90.879829
203.889374
180.053833
110.904633
124.355415
145.188721
210.264023
345.826050
64.565514
95.305023
65.469025
153.907196
38.856329
89.067383
122.602623
230.167755
146.666473
58.058392
35.625364
171.567307
77.648445
100.676941
233.331894
155.452835
182.460815
231.763412
185.701172
114.081123
199.705872
159.035019
124.858376
45.780170
300.611603
580.523438
103.276794
181.341492
75.255791
68.490921
61.890957
137.334366
88.062416
134.377686
23.039434
45.995945
57.895550
28.465044
199.769547
198.802017
99.162491
124.830360
66.788258
102.331627
127.722435
77.750237
58.577812
113.850624
37.320271
136.798851
131.852188
31.964827
77.386620
100.840004
92.929718
216.529724
204.213684
72.853371
58.789616
108.750671
144.894058
48.123581
57.154411
70.886734
83.372643
144.467484
56.188404
45.136528
55.355282
154.293930
56.995888
68.114735
80.015320
109.819710
61.436180
57.718731
98.572411
216.341507
88.098763
108.678589
105.511711
120.176064
190.812195
219.961685
56.072277
86.545250
198.448761
183.059998
97.927567
95.970001
92.366112
108.152367
37.330387
78.104744
204.131134
187.834564
102.255516
268.571472
109.175621
184.311554
135.192963
73.027390
88.605194
111.163773
107.461189
74.837746
107.841843
56.143848
78.389565
32.363022
55.116943
67.725365
58.600555
67.785362
54.515285
67.251610
29.822157
31.416660
23.319681
69.398933
118.382515
54.463509
79.857185
114.685135
106.367783
354.567963
132.942688
18.093481
42.378944
67.766178
163.418259
100.770264
202.956863
53.569691
137.220436
75.049522
54.585556
41.604597
31.763994
51.139919
96.908310
33.395260
72.442348
28.303520
34.632528
53.751560
49.407894
39.611799
43.768105
206.067474
70.012226
56.763664
78.218613
110.619171
120.424858
129.065536
37.739861
81.320190
99.707176
430.914978
334.866272
264.846100
184.800476
171.880920
68.160927
129.273972
184.241974
114.764832
276.972595
59.814312
38.580072
99.892494
99.497917
352.089569
103.662529
193.954300
100.639114
127.831223
64.812088
206.371292
93.497330
136.453972
76.121262
45.517555
113.373871
61.900955
119.710770
38.502562
221.924835
173.953079
175.173096
139.990753
97.472046
288.660126
260.083923
379.964783
108.181519
86.408958
174.973694
156.992218
193.704117
106.729118
118.278534
111.517372
137.951691
81.335098
101.948730
39.688414
56.938076
85.188507
39.273251
171.178543
67.195904
215.595581
91.474556
133.075943
78.209816
63.313637
108.284706
125.035980
142.091263
67.492832
92.309151
177.574295
87.400536
149.322479
117.223145
166.675034
155.004868
63.020508
74.422607
38.720844
85.250778
57.936691
41.910328
96.568420
124.445236
330.315674
199.285675
173.649750
47.384029
240.188370
146.722641
107.954773
73.816875
62.205074
34.329260
122.927208
262.673264
234.588135
64.138683
57.628941
34.128513
40.507326
29.620710
45.975632
33.486315
66.984112
54.945091
156.465164
76.300171
92.188477
125.335892
61.785744
83.507072
71.467228
66.932457
93.487564
71.333557
68.233105
48.020866
64.783287
42.036545
30.939644
63.501652
16.592999
83.710106
39.667519
24.080845
38.199463
59.077869
74.558289
94.134232
53.313015
58.136707
55.968033
60.108124
31.326191
31.145844
19.762253
95.101898
107.551506
51.614933
101.253288
78.618088
31.895601
34.046751
35.920443
81.686417
24.685916
53.648891
44.324245
30.028816
57.348885
64.505566
62.361210
66.523731
56.627274
49.928268
75.684456
106.714348
56.635300
30.205597
29.051060
20.775348
72.374828
32.469894
157.554123
68.994614
165.516953
74.761986
99.536308
102.926170
51.993641
49.807552
123.032135
89.496002
182.034042
97.026024
86.084175
113.180061
103.821701
124.980576
254.835175
139.201660
30.960180
196.220657
38.439779
110.964600
212.727692
55.988003
222.496826
62.796146
66.175594
68.801086
136.383064
162.519379
96.698013
138.553833
69.959049
38.606571
139.980103
91.878647
88.751183
29.056957
53.319668
183.374069
211.312912
133.199234
113.688759
132.241501
70.672745
87.129745
75.009056
83.999077
46.404232
31.754595
34.071682
46.089897
77.443176
116.330185
68.914268
61.431339
66.576191
62.940891
39.882103
81.365334
58.294312
36.688194
35.724922
42.091618
97.971443
26.386707
54.055470
105.264671
70.080818
50.854061
63.493298
53.175133
31.505346
64.330276
45.941437
131.560883
77.981003
201.000275
33.790102
79.013611
36.521059
91.239182
31.513613
31.406340
54.217609
56.156628
63.987339
60.819763
49.584049
156.839874
124.859024
52.870255
27.766321
18.779879
64.269768
39.534872
63.274593
59.439148
90.478455
54.811138
58.496769
44.397484
39.140936
91.406410
70.322266
58.684692
40.696295
213.132706
148.319412
309.988464
68.224636
71.883522
92.901894
81.752045
54.243950
60.328354
54.262039
110.818596
344.893005
167.092270
130.561546
173.701843
44.202438
19.550764
37.068729
63.904118
172.084015
43.956188
75.195854
84.143715
73.582592
60.753712
93.425583
88.004036
122.622337
92.749184
67.517609
143.988998
122.832382
117.301514
40.579929
104.824837
67.832722
24.185297
106.495995
74.673004
88.050453
86.959595
74.556831
85.179848
70.772297
23.964756

