# vtk DataFile Version 3.1
Tetrahedral Mesh Visualization
ASCII
DATASET UNSTRUCTURED_GRID

POINTS 277 FLOAT
0.000000 1.378113 1.754166
0.000000 0.000000 0.000000
2.003267 -0.009847 0.010396
0.000000 1.666667 0.000000
2.423463 -0.003172 1.740766
0.000000 0.000000 1.666667
1.699642 2.456341 0.003396
2.996202 2.453169 2.329857
4.006511 4.982409 0.005620
3.073515 4.993022 1.643818
5.209447 4.995783 1.626583
3.501407 3.164034 0.009853
5.424798 3.296190 0.025549
6.018059 4.992743 0.035039
7.393818 3.333351 0.058422
6.977304 4.999939 1.370862
9.254637 2.191756 2.115168
8.703352 5.014504 1.686662
9.378172 3.336466 0.088526
10.669293 5.009146 1.762429
11.381959 3.338184 0.125725
11.124311 1.876862 1.672228
10.707509 1.670889 0.112039
12.719222 1.673663 0.161819
13.382351 3.335799 0.183703
12.988449 1.882784 1.665886
14.721001 1.676440 0.226431
14.052428 0.011601 0.198284
15.479385 2.152475 1.945462
15.348388 0.011116 1.899910
13.349665 0.010233 1.842239
17.307302 0.024042 1.892367
16.716539 1.692618 0.280058
18.048922 0.040679 0.294643
16.049904 0.015720 0.260097
18.721478 1.707691 0.319800
19.024319 0.032283 1.635109
20.048872 0.047656 0.334732
16.721598 0.009568 3.575629
18.988825 0.019440 3.425822
17.693888 2.703439 3.252605
17.953829 -0.004181 5.298268
16.635714 1.660738 5.279249
15.953448 -0.009026 5.250563
14.664949 -0.001792 3.550396
15.753595 2.890029 3.618392
18.681982 1.693781 5.319324
17.257933 3.336094 5.305135
19.227846 3.383154 5.353627
19.309973 5.003974 3.698640
20.939848 3.670084 5.400388
21.317440 5.007782 3.762161
19.629694 2.519319 2.699566
20.688000 5.027438 2.075604
21.914417 2.538570 2.870270
22.688643 5.034438 2.120615
23.344530 3.445943 0.437069
23.972982 2.478271 2.735928
25.060328 3.736668 0.488396
25.054619 1.947231 0.461060
25.999876 2.529377 2.225902
27.318644 1.745632 0.530005
26.771626 3.442269 0.532806
29.266750 0.013142 2.172840
28.046606 0.041293 0.524087
29.360882 1.709124 0.586189
30.986027 -0.004831 1.939257
32.037994 0.004484 0.654509
31.355122 1.674403 0.653441
30.038963 0.026813 0.583132
33.316059 1.638862 0.721171
34.023056 -0.023550 0.718620
32.670918 -0.026869 2.294235
34.581558 -0.048482 2.425142
34.980244 2.342598 3.318339
36.494949 -0.067803 2.596880
35.099308 -0.070508 4.130841
36.796951 -0.085422 4.321003
38.239712 2.424542 5.836352
37.685211 2.094033 3.007294
38.290249 -0.068847 3.341436
38.025455 -0.056275 0.817333
37.938755 -0.098042 5.799943
35.923935 -0.089718 5.755857
36.502865 1.647890 5.789634
34.862942 1.248125 5.751671
34.790337 3.040412 5.777690
36.705559 3.382682 5.822748
33.947300 4.905563 5.781525
32.627510 3.227576 5.719201
33.255756 4.940802 4.105565
31.948118 4.936702 5.718162
35.140408 4.929634 4.205902
32.192158 2.565330 3.129295
34.616318 4.943296 2.491530
32.689243 3.317712 0.717632
33.158104 -0.049246 4.012538
30.937004 -0.031330 3.732381
31.227669 1.601061 5.655470
33.166546 1.529209 5.719353
30.599327 3.283064 5.659171
28.595585 3.305766 5.597209
29.243662 1.630827 5.592386
30.008003 2.488883 3.103164
27.952208 2.497342 3.044671
26.593384 3.312749 5.525359
27.246376 1.641257 5.523410
24.689951 5.030489 2.165772
22.057064 5.055604 0.444330
21.388105 3.392297 0.396042
22.786657 1.754480 0.400825
20.060705 5.047698 0.397194
19.387581 3.379186 0.348656
18.680964 5.020277 2.012597
18.044647 5.036174 0.338583
17.380615 3.361974 0.302261
16.044832 5.014946 0.277897
16.674713 5.015351 1.962638
14.674368 5.007596 1.898165
13.675275 2.961285 3.468419
12.944831 1.325020 5.172902
12.651198 0.007536 3.491024
13.947260 -0.005145 5.197946
11.229984 1.628431 5.118799
10.646937 0.011768 3.434735
11.948263 0.011934 5.141910
9.958508 0.011911 5.091415
11.343448 0.013517 1.783036
9.319356 0.014468 1.754341
10.035428 0.006646 0.097163
8.716114 1.669472 0.076300
8.028727 5.005713 0.065971
10.033634 5.000099 0.096792
11.206297 2.659198 3.400997
9.239597 5.021168 3.383255
10.699492 3.332810 5.109149
11.292850 5.015225 3.446985
9.960451 5.028241 5.091178
11.949655 5.015523 5.142115
7.962420 5.018762 5.059461
8.710189 3.410408 5.073341
6.947903 5.011600 3.158766
5.334352 3.379065 5.034768
5.966694 5.015650 5.035302
7.001349 3.696479 5.051745
5.133031 2.377992 3.165863
4.610343 5.004064 3.304665
3.474653 3.197840 5.016697
3.982525 5.012760 5.012708
2.368849 5.004647 3.278839
4.861420 1.599467 0.019535
4.914549 0.007674 1.900305
6.752785 1.657746 0.050856
7.013703 2.574138 2.245924
8.642137 0.006021 3.415099
17.308250 5.008574 3.645338
15.303378 4.997515 3.590510
15.938798 4.991632 5.274734
14.661413 1.603860 5.225645
15.206676 3.295251 5.254512
12.048218 0.012964 0.135632
15.381763 3.343060 0.255543
14.051016 5.002844 0.208236
12.675061 5.008804 1.827553
13.303347 5.002585 3.519332
7.252591 0.009953 1.750332
6.659330 0.004632 3.424817
4.894279 1.653661 5.030161
5.978902 0.006146 5.043049
4.906236 0.003959 3.688000
3.988271 0.001964 5.018299
7.021703 1.900728 5.044140
7.965017 0.012253 5.068184
9.239892 1.706719 5.081481
20.944260 1.886262 5.369155
22.649311 3.381164 5.434434
23.949659 4.985460 5.485198
24.606058 3.327990 5.473300
23.315664 5.007882 3.805371
27.311539 4.997442 3.910910
26.693115 5.023475 2.220359
25.317184 5.006551 3.848495
35.194859 1.562147 0.771756
36.870323 1.400823 0.802290
39.967194 3.168941 4.497794
39.989185 1.561380 3.457194
38.300777 4.930616 3.401076
39.993378 3.184673 2.770082
39.981064 4.923409 4.229248
37.951996 4.905008 5.868528
39.952038 4.908466 5.896405
39.947540 3.238865 5.876908
39.942722 1.572871 5.860137
39.974564 -0.070993 4.178103
40.009514 -0.057294 2.511381
40.024761 -0.041146 0.843000
40.020805 1.620536 0.853437
40.031368 3.291530 0.881018
38.336803 2.420485 0.829027
38.036640 4.961029 0.863544
40.003532 4.942571 2.565102
36.816296 4.916821 4.388926
36.523830 4.931484 2.656424
36.549679 3.126734 0.808128
36.055759 4.960743 0.821934
34.646126 3.269183 0.768805
34.069149 4.969168 0.777686
30.711538 3.352199 0.659840
30.078608 5.027534 0.664652
32.076286 4.998851 0.718840
30.681589 4.993952 2.350860
28.723986 3.385484 0.602196
26.684299 -0.008487 3.863647
27.268976 0.012823 2.190063
25.250238 1.654833 5.462176
23.936281 -0.014147 5.411267
25.921812 -0.030821 5.458148
24.962803 -0.000775 4.107959
23.208246 1.690920 5.416499
23.249153 0.016302 3.777238
21.244865 0.021749 3.665159
21.947216 -0.004038 5.372328
19.952377 -0.007748 5.331791
17.941454 4.998091 5.325468
19.941795 4.982949 5.387682
22.747528 0.036513 2.070346
25.000521 0.027799 2.316309
24.049686 0.053374 0.407947
26.048738 0.049465 0.466273
26.068310 5.049016 0.537904
25.670479 2.235097 3.963958
28.688713 5.016076 2.289980
28.078903 5.045997 0.600914
25.945759 4.987825 5.530188
12.048425 4.999957 0.143221
12.946130 3.116224 5.176645
13.942816 5.001697 5.211593
21.948309 4.985651 5.447040
28.690462 -0.016113 3.856775
29.310061 4.985142 3.974292
29.946207 4.965358 5.657396
31.296112 4.965611 4.039075
31.898382 -0.059620 5.656166
33.912434 -0.076722 5.710927
35.955635 4.899724 5.830462
32.660217 4.966563 2.411239
20.736786 1.721394 0.362880
20.741350 0.035927 1.960607
24.060823 5.052379 0.486599
27.940641 4.973535 5.599567
40.027733 4.960964 0.895215
3.175660 1.470415 5.012651
0.000000 3.103853 1.750106
0.000000 5.000000 1.666667
0.000000 3.333333 0.000000
2.000667 4.985337 -0.002244
0.000000 5.000000 0.000000
0.000000 5.000000 3.333333
0.000000 0.000000 3.333333
1.695551 2.473135 5.003268
3.036762 -0.000007 3.397377
1.998303 -0.000818 5.002951
0.000000 2.403264 3.370902
0.000000 1.666667 5.000000
0.000000 3.333333 5.000000
0.000000 0.000000 5.000000
27.911892 -0.030927 5.522418
29.903650 -0.043077 5.590235
36.020126 -0.051381 0.770615
39.946728 -0.089807 5.842160
8.034688 -0.000319 0.072477
1.994020 5.003118 5.003928
3.174423 1.444829 0.013567
4.017728 -0.004826 0.021651
22.050457 0.052979 0.369262
0.000000 5.000000 5.000000
6.030801 0.003391 0.042908

CELLS 734 3670
4 0 1 2 3
4 0 4 2 5
4 0 3 2 6
4 4 6 0 2
4 4 6 7 0
4 8 9 10 11
4 12 13 14 15
4 16 17 14 18
4 19 20 18 21
4 20 22 21 23
4 24 25 26 23
4 25 27 26 23
4 26 28 29 30
4 28 29 31 32
4 33 34 32 31
4 31 33 35 32
4 31 33 36 35
4 33 37 36 35
4 38 39 40 31
4 41 42 43 38
4 44 42 45 38
4 44 42 38 43
4 46 38 42 41
4 46 47 40 48
4 49 50 51 52
4 53 54 51 55
4 56 54 55 57
4 56 58 59 57
4 60 59 61 62
4 63 61 64 65
4 66 67 68 69
4 67 70 71 72
4 73 74 75 76
4 74 77 75 76
4 77 78 79 80
4 79 81 75 80
4 77 78 80 82
4 77 83 76 84
4 83 85 76 84
4 85 86 74 84
4 74 86 87 84
4 88 89 86 90
4 91 89 88 90
4 86 88 90 92
4 90 86 92 74
4 86 89 74 90
4 93 94 95 74
4 70 74 72 93
4 70 73 71 72
4 74 96 73 72
4 66 97 93 72
4 96 97 72 93
4 96 98 97 93
4 85 96 74 99
4 96 98 93 99
4 98 89 100 93
4 101 102 100 103
4 104 105 101 106
4 107 58 57 60
4 58 107 57 56
4 53 108 109 55
4 56 110 109 54
4 53 111 109 108
4 112 53 109 52
4 111 112 113 53
4 112 111 113 114
4 115 116 114 117
4 40 28 115 117
4 45 117 118 28
4 119 28 25 44
4 120 44 121 122
4 123 121 124 125
4 125 123 126 124
4 127 128 21 124
4 16 129 128 21
4 16 18 14 130
4 16 17 18 19
4 131 17 132 18
4 16 19 18 21
4 133 16 19 134
4 135 134 133 136
4 135 137 136 138
4 137 134 139 140
4 141 142 143 144
4 145 146 147 7
4 142 148 147 146
4 7 146 147 149
4 10 7 9 146
4 145 150 7 151
4 152 151 150 153
4 16 128 154 124
4 124 21 121 133
4 25 28 30 44
4 28 38 45 40
4 45 47 40 42
4 155 45 156 47
4 157 156 47 155
4 155 45 40 117
4 45 42 158 159
4 44 42 43 158
4 119 45 158 159
4 120 44 158 119
4 25 127 21 121
4 25 27 160 30
4 127 25 160 30
4 25 127 121 30
4 44 25 121 30
4 28 30 44 29
4 119 28 44 45
4 119 28 118 25
4 28 24 26 161
4 26 32 29 28
4 28 31 29 38
4 46 38 41 39
4 46 38 39 40
4 28 117 40 45
4 118 28 117 161
4 162 24 118 161
4 118 119 163 164
4 136 119 164 163
4 25 133 21 163
4 128 16 21 124
4 165 166 153 154
4 166 167 168 169
4 167 168 169 170
4 171 168 172 166
4 124 173 126 154
4 123 121 133 124
4 120 125 122 121
4 122 158 44 43
4 47 46 40 42
4 52 50 174 48
4 175 50 174 54
4 176 175 177 178
4 179 60 180 181
4 64 69 63 65
4 68 72 67 66
4 70 73 182 71
4 74 79 183 75
4 184 78 185 79
4 79 184 186 187
4 186 184 188 187
4 184 189 190 191
4 184 78 79 186
4 78 189 184 191
4 189 184 190 188
4 184 78 191 192
4 184 78 192 185
4 192 78 80 185
4 193 80 194 185
4 195 81 196 194
4 81 79 196 194
4 197 187 196 198
4 187 79 185 196
4 79 184 187 185
4 197 199 187 198
4 199 197 187 200
4 199 200 187 186
4 78 201 79 186
4 189 201 87 78
4 202 201 79 74
4 201 74 92 87
4 201 202 92 74
4 201 202 79 186
4 202 203 74 79
4 202 198 203 79
4 204 202 199 203
4 202 203 205 74
4 202 204 205 203
4 182 203 74 205
4 74 203 183 79
4 79 203 183 198
4 79 81 198 183
4 81 79 198 196
4 187 79 196 198
4 202 198 79 186
4 202 204 94 205
4 94 95 205 206
4 207 208 209 210
4 208 207 211 210
4 104 103 211 65
4 104 60 212 213
4 214 215 216 217
4 218 219 220 221
4 222 174 220 221
4 46 39 222 174
4 52 46 40 48
4 40 49 52 48
4 53 49 52 113
4 40 49 155 113
4 155 45 47 40
4 157 47 223 155
4 49 223 224 48
4 52 50 51 54
4 175 54 57 178
4 218 175 54 57
4 225 219 54 57
4 218 175 57 177
4 57 217 219 218
4 219 225 226 57
4 225 227 226 57
4 59 110 57 227
4 59 60 61 228
4 61 60 213 228
4 64 61 213 228
4 63 61 213 64
4 61 104 211 65
4 180 60 104 62
4 58 229 62 180
4 58 60 180 62
4 60 61 104 62
4 60 226 230 212
4 226 60 213 212
4 60 104 212 230
4 179 60 230 104
4 104 211 231 62
4 180 229 62 232
4 180 232 62 231
4 179 60 104 180
4 233 181 105 179
4 181 105 179 230
4 105 214 106 230
4 105 214 230 177
4 215 214 218 217
4 215 217 218 219
4 218 215 219 221
4 218 175 174 54
4 39 52 220 174
4 39 46 52 174
4 115 52 112 35
4 28 115 117 161
4 162 118 116 161
4 24 162 118 163
4 20 19 234 163
4 25 133 163 119
4 120 119 158 235
4 236 119 235 159
4 235 119 158 159
4 119 235 133 136
4 138 235 236 164
4 45 47 42 159
4 46 38 40 42
4 49 50 52 48
4 237 175 176 178
4 181 233 177 176
4 180 179 231 104
4 207 103 65 211
4 207 103 68 65
4 65 66 103 68
4 103 66 97 93
4 66 103 97 63
4 213 104 63 238
4 238 97 103 63
4 104 102 103 238
4 104 106 212 230
4 214 212 106 230
4 214 212 216 106
4 214 212 217 216
4 214 212 230 217
4 226 217 230 212
4 226 60 230 57
4 181 60 57 230
4 179 105 104 230
4 179 105 101 104
4 104 239 103 101
4 239 101 240 100
4 91 241 240 100
4 241 239 240 100
4 239 241 103 100
4 103 210 93 241
4 103 207 93 210
4 210 103 231 239
4 103 239 104 231
4 103 104 63 65
4 65 66 63 103
4 65 66 68 69
4 68 72 66 93
4 96 98 242 97
4 85 96 99 243
4 85 86 99 74
4 86 89 99 74
4 88 86 244 92
4 74 86 92 87
4 201 244 87 92
4 244 86 87 92
4 90 74 92 94
4 94 95 206 245
4 95 209 206 245
4 245 207 95 209
4 208 232 231 211
4 180 104 231 62
4 181 60 107 57
4 54 175 51 178
4 50 52 174 54
4 246 36 52 247
4 246 36 37 35
4 52 31 36 35
4 31 39 52 36
4 39 46 222 41
4 39 222 174 220
4 174 218 220 221
4 218 219 54 220
4 225 219 220 54
4 56 110 54 57
4 110 56 59 57
4 60 59 226 228
4 60 226 213 228
4 57 217 230 226
4 214 217 230 218
4 218 57 230 177
4 181 105 230 177
4 179 60 181 230
4 58 107 180 60
4 229 107 58 248
4 229 107 180 58
4 60 58 59 62
4 58 107 56 248
4 108 56 109 55
4 108 56 55 248
4 107 56 55 57
4 107 181 57 178
4 57 181 177 178
4 181 176 177 178
4 233 181 177 105
4 249 239 101 240
4 91 89 241 100
4 89 91 241 90
4 210 245 93 241
4 245 241 90 93
4 93 94 90 245
4 74 202 92 94
4 205 204 94 206
4 202 198 199 203
4 202 198 186 199
4 199 197 200 250
4 199 186 187 198
4 200 186 188 187
4 184 189 186 188
4 201 189 87 244
4 189 201 78 186
4 201 78 79 87
4 189 78 184 186
4 186 79 187 198
4 74 201 79 87
4 74 79 84 87
4 79 78 84 87
4 77 78 84 79
4 74 77 84 79
4 74 85 84 76
4 83 243 76 85
4 85 96 243 76
4 73 96 74 76
4 96 93 74 99
4 89 93 99 74
4 93 94 74 90
4 93 94 245 95
4 207 95 68 93
4 95 70 68 93
4 95 70 74 205
4 74 70 182 205
4 94 95 74 205
4 241 89 90 93
4 104 179 231 239
4 181 60 180 107
4 107 57 55 178
4 57 54 55 178
4 53 49 51 52
4 40 49 113 52
4 155 47 223 48
4 45 47 159 156
4 119 156 45 159
4 120 44 119 121
4 16 173 124 154
4 166 167 169 145
4 145 7 147 251
4 9 7 252 149
4 253 254 252 255
4 256 253 255 254
4 6 9 252 255
4 253 257 149 252
4 7 258 259 260
4 260 261 251 170
4 169 260 251 170
4 169 251 167 170
4 166 167 145 171
4 16 22 18 130
4 25 24 20 23
4 24 25 118 28
4 119 156 118 45
4 119 28 45 118
4 119 45 44 158
4 44 38 28 29
4 25 28 26 30
4 25 24 26 28
4 24 20 234 163
4 162 24 234 163
4 163 119 118 25
4 235 135 133 136
4 135 134 140 133
4 145 141 153 144
4 145 260 169 151
4 0 258 4 5
4 259 258 262 263
4 264 259 262 263
4 258 7 262 0
4 260 258 259 261
4 258 261 263 259
4 261 258 263 265
4 261 260 251 259
4 167 251 169 145
4 145 260 251 169
4 166 167 171 168
4 16 171 153 140
4 137 135 136 134
4 138 135 235 136
4 235 138 136 164
4 236 119 156 164
4 157 156 159 47
4 155 47 48 40
4 40 49 48 155
4 46 52 174 48
4 247 225 220 54
4 110 225 57 227
4 60 59 57 226
4 104 61 211 62
4 232 211 62 231
4 103 104 211 231
4 239 210 103 241
4 241 93 103 100
4 68 72 93 70
4 103 207 68 93
4 207 103 211 210
4 210 208 231 211
4 103 210 231 211
4 245 207 210 93
4 245 207 209 210
4 245 207 93 95
4 70 95 74 93
4 70 73 74 182
4 182 203 183 74
4 202 74 205 94
4 93 89 90 74
4 89 241 100 93
4 93 98 103 100
4 101 104 102 103
4 104 101 102 106
4 106 238 104 212
4 266 216 212 106
4 106 238 212 266
4 106 238 102 104
4 267 266 238 102
4 97 102 267 238
4 106 238 266 102
4 97 102 238 103
4 97 102 103 98
4 97 102 98 267
4 97 98 242 267
4 96 98 99 242
4 89 98 99 93
4 239 101 100 103
4 104 179 239 101
4 179 249 239 101
4 105 179 101 249
4 233 105 249 179
4 177 181 57 230
4 175 57 177 178
4 175 237 51 178
4 55 54 51 178
4 112 111 109 53
4 112 53 52 113
4 117 115 113 114
4 116 118 117 161
4 115 116 117 161
4 28 115 161 32
4 29 32 26 34
4 26 30 29 27
4 34 26 29 27
4 29 34 31 32
4 31 115 32 35
4 31 115 28 32
4 246 112 52 35
4 246 247 52 54
4 247 110 225 54
4 59 227 57 226
4 213 104 238 212
4 104 103 63 238
4 97 98 103 93
4 70 73 72 74
4 71 182 268 73
4 182 75 268 73
4 182 75 183 268
4 183 81 268 75
4 182 75 74 183
4 79 81 183 75
4 79 81 80 194
4 78 192 80 82
4 192 193 80 82
4 269 193 192 82
4 193 192 80 185
4 80 79 194 185
4 77 74 75 79
4 85 96 76 74
4 96 243 242 99
4 98 102 103 100
4 104 105 106 230
4 214 218 230 177
4 50 175 51 54
4 49 155 223 48
4 157 156 236 159
4 236 119 159 156
4 235 119 164 136
4 236 119 164 235
4 133 235 120 123
4 120 235 133 119
4 135 123 235 133
4 124 173 123 126
4 173 172 126 154
4 166 171 154 172
4 172 171 154 173
4 171 16 154 173
4 171 166 154 153
4 16 171 154 153
4 124 173 16 133
4 124 173 133 123
4 25 133 119 121
4 19 16 133 21
4 163 19 133 21
4 134 19 133 136
4 133 119 136 163
4 133 19 163 136
4 132 20 18 19
4 20 132 234 19
4 20 19 163 21
4 22 20 21 18
4 16 22 21 18
4 128 129 127 21
4 160 129 21 127
4 160 21 25 127
4 25 20 21 23
4 25 27 23 160
4 25 27 30 26
4 23 22 21 160
4 16 129 21 22
4 128 130 165 270
4 128 130 270 129
4 128 130 16 165
4 16 165 153 154
4 17 16 14 153
4 131 17 18 14
4 17 141 153 15
4 12 10 15 153
4 15 17 14 153
4 153 16 14 130
4 16 129 22 130
4 128 130 129 16
4 16 128 165 154
4 151 166 153 165
4 260 145 7 151
4 9 6 252 7
4 7 262 252 149
4 260 259 7 251
4 7 259 147 251
4 264 259 271 149
4 259 7 147 149
4 146 148 147 149
4 271 259 147 149
4 148 271 147 149
4 146 142 143 141
4 144 141 140 139
4 141 134 140 139
4 143 141 144 139
4 142 145 141 146
4 145 142 141 144
4 148 142 143 146
4 145 7 10 146
4 145 150 151 153
4 151 272 150 7
4 151 272 273 150
4 151 272 4 273
4 4 272 2 273
4 151 272 7 4
4 4 260 7 151
4 166 145 151 153
4 166 145 169 151
4 171 166 153 145
4 133 16 140 173
4 124 16 21 133
4 25 21 160 23
4 21 129 160 22
4 121 21 124 127
4 121 120 133 119
4 123 121 125 120
4 123 121 120 133
4 25 133 121 21
4 25 20 163 21
4 118 24 28 161
4 26 28 161 32
4 40 115 28 31
4 115 52 113 112
4 246 112 109 52
4 246 52 109 54
4 56 54 109 55
4 56 107 55 248
4 58 60 59 57
4 63 61 65 104
4 68 72 70 67
4 182 75 73 74
4 77 79 75 80
4 196 79 185 194
4 79 78 185 80
4 77 78 82 84
4 83 77 82 84
4 77 74 84 76
4 96 74 93 72
4 103 66 93 68
4 65 66 69 63
4 63 61 104 213
4 61 60 104 213
4 59 227 226 228
4 274 110 227 225
4 246 36 247 37
4 246 36 35 52
4 52 115 40 31
4 28 31 38 40
4 44 42 158 45
4 120 44 122 158
4 135 133 140 173
4 171 16 173 140
4 171 144 153 140
4 141 144 140 153
4 10 141 15 153
4 10 12 15 13
4 10 8 12 13
4 8 10 12 11
4 8 9 11 255
4 9 253 149 252
4 257 262 149 252
4 262 259 149 7
4 258 7 4 260
4 259 258 7 262
4 262 0 7 252
4 0 6 7 252
4 254 6 252 255
4 0 3 6 252
4 6 3 254 252
4 272 6 11 7
4 4 6 272 7
4 4 6 2 272
4 9 6 11 255
4 9 253 252 255
4 262 264 257 149
4 257 264 275 271
4 259 264 262 149
4 257 264 271 149
4 9 146 7 149
4 10 7 11 9
4 7 12 10 11
4 145 150 153 12
4 12 145 10 153
4 145 146 10 141
4 145 142 147 146
4 171 145 153 144
4 171 142 145 144
4 142 171 145 167
4 142 145 147 167
4 167 145 147 251
4 145 260 7 251
4 145 150 12 7
4 12 145 7 10
4 12 152 153 14
4 152 153 14 130
4 152 151 153 165
4 165 152 276 270
4 152 151 165 276
4 165 152 270 130
4 152 151 276 150
4 276 150 151 273
4 272 7 11 150
4 7 12 11 150
4 153 150 152 12
4 165 16 153 130
4 165 152 130 153
4 15 12 153 14
4 13 131 14 15
4 17 131 15 14
4 17 132 18 19
4 25 24 163 20
4 25 24 118 163
4 119 156 164 118
4 118 117 45 156
4 155 45 117 156
4 113 40 117 155
4 50 49 224 48
4 49 50 224 51
4 50 237 224 51
4 237 50 175 51
4 52 54 220 174
4 52 247 220 54
4 39 247 220 52
4 39 247 52 36
4 115 52 35 31
4 40 115 52 113
4 40 115 113 117
4 115 112 113 114
4 53 52 51 54
4 54 53 109 55
4 52 53 109 54
4 110 246 109 54
4 247 110 54 246
4 247 110 274 225
4 246 274 37 247
4 247 110 246 274
4 110 225 54 57
4 57 217 226 219
4 57 217 218 230
4 219 218 54 57
4 218 54 174 220
4 46 39 52 40
4 39 31 52 40
4 38 42 45 40
4 28 38 44 45
4 121 25 44 119
4 123 135 173 133
4 134 153 140 16
4 134 16 140 133
4 137 135 134 140
4 134 153 141 140
4 134 153 16 17
4 16 17 19 134
4 134 153 17 141
4 153 145 10 141
4 6 9 11 7
4 258 7 0 4
4 1 0 2 5

CELL_TYPES 734
10
10
10
10
10
10
10
10
10
10
10
10
10
10
10
10
10
10
10
10
10
10
10
10
10
10
10
10
10
10
10
10
10
10
10
10
10
10
10
10
10
10
10
10
10
10
10
10
10
10
10
10
10
10
10
10
10
10
10
10
10
10
10
10
10
10
10
10
10
10
10
10
10
10
10
10
10
10
10
10
10
10
10
10
10
10
10
10
10
10
10
10
10
10
10
10
10
10
10
10
10
10
10
10
10
10
10
10
10
10
10
10
10
10
10
10
10
10
10
10
10
10
10
10
10
10
10
10
10
10
10
10
10
10
10
10
10
10
10
10
10
10
10
10
10
10
10
10
10
10
10
10
10
10
10
10
10
10
10
10
10
10
10
10
10
10
10
10
10
10
10
10
10
10
10
10
10
10
10
10
10
10
10
10
10
10
10
10
10
10
10
10
10
10
10
10
10
10
10
10
10
10
10
10
10
10
10
10
10
10
10
10
10
10
10
10
10
10
10
10
10
10
10
10
10
10
10
10
10
10
10
10
10
10
10
10
10
10
10
10
10
10
10
10
10
10
10
10
10
10
10
10
10
10
10
10
10
10
10
10
10
10
10
10
10
10
10
10
10
10
10
10
10
10
10
10
10
10
10
10
10
10
10
10
10
10
10
10
10
10
10
10
10
10
10
10
10
10
10
10
10
10
10
10
10
10
10
10
10
10
10
10
10
10
10
10
10
10
10
10
10
10
10
10
10
10
10
10
10
10
10
10
10
10
10
10
10
10
10
10
10
10
10
10
10
10
10
10
10
10
10
10
10
10
10
10
10
10
10
10
10
10
10
10
10
10
10
10
10
10
10
10
10
10
10
10
10
10
10
10
10
10
10
10
10
10
10
10
10
10
10
10
10
10
10
10
10
10
10
10
10
10
10
10
10
10
10
10
10
10
10
10
10
10
10
10
10
10
10
10
10
10
10
10
10
10
10
10
10
10
10
10
10
10
10
10
10
10
10
10
10
10
10
10
10
10
10
10
10
10
10
10
10
10
10
10
10
10
10
10
10
10
10
10
10
10
10
10
10
10
10
10
10
10
10
10
10
10
10
10
10
10
10
10
10
10
10
10
10
10
10
10
10
10
10
10
10
10
10
10
10
10
10
10
10
10
10
10
10
10
10
10
10
10
10
10
10
10
10
10
10
10
10
10
10
10
10
10
10
10
10
10
10
10
10
10
10
10
10
10
10
10
10
10
10
10
10
10
10
10
10
10
10
10
10
10
10
10
10
10
10
10
10
10
10
10
10
10
10
10
10
10
10
10
10
10
10
10
10
10
10
10
10
10
10
10
10
10
10
10
10
10
10
10
10
10
10
10
10
10
10
10
10
10
10
10
10
10
10
10
10
10
10
10
10
10
10
10
10
10
10
10
10
10
10
10
10
10
10
10
10
10
10
10
10
10
10
10
10
10
10
10
10
10
10
10
10
10
10
10
10
10
10
10
10
10
10
10
10
10
10
10
10
10
10
10
10
10
10
10
10
10
10
10
10
10
10
10
10
10
10
10
10
10
10
10
10
10
10
10
10
10
10
10
10
10
10
10
10
10
10
10
10
10
10
10
10
10
10
10
10
10
10
10
10
10
10
10
10
10
10
10
10
10
10
10
10
10
10
10
10
10
10
10

CELL_DATA 734
SCALARS potentialEnergy FLOAT 1
LOOKUP_TABLE default
117.576218
143.992905
117.558792
121.129181
56.028675
56.895847
84.397278
67.251694
146.409225
385.948425
91.505951
77.504204
97.648087
106.527504
137.947128
56.598110
91.212410
109.017838
27.837502
53.445904
95.668640
93.439751
39.526251
64.552452
153.031113
133.046700
77.586105
190.310211
86.842743
24.393229
62.666924
363.004181
186.840500
222.229568
101.931557
209.835968
110.245789
91.452034
80.500908
139.524109
86.006096
166.663971
106.205597
73.892632
113.996635
211.956268
148.238953
116.301445
146.825485
63.959236
123.860237
139.049728
143.257553
184.066147
159.125473
59.575214
79.096695
134.322548
48.522015
121.177254
73.152943
65.871948
135.582916
172.917923
167.244308
330.673767
165.671829
98.385620
193.134140
310.129211
122.596298
49.333488
95.524620
47.795380
54.764191
35.460543
37.986044
49.894970
47.515263
34.217388
47.334454
134.592567
34.125639
31.405975
249.446838
93.193054
143.860962
125.383057
135.513031
136.396072
22.907569
195.771149
241.231979
72.707008
20.502399
230.431396
97.016510
47.787281
48.408669
114.135124
85.913216
149.021851
137.569000
99.750565
131.709633
88.338379
131.267082
137.116951
215.718048
259.731415
91.184982
118.894112
49.268616
90.904984
93.485123
65.829449
172.283630
151.913574
145.749374
145.271072
185.106354
32.865568
67.928577
89.837196
55.246025
134.647675
88.786797
190.939835
97.636497
79.448273
70.838829
137.847168
132.952614
20.970898
54.126499
54.237686
63.371922
77.584175
163.528442
68.459522
171.653534
45.365536
120.348175
109.548332
36.489521
59.165161
31.695568
19.250854
54.848862
158.950623
162.505035
53.861866
187.331757
89.365677
35.878817
115.496590
52.376286
69.816204
88.798111
105.260902
82.855949
103.845337
33.939024
76.529327
216.592255
96.559647
273.055389
205.423126
134.198517
112.323265
35.328959
96.123840
169.183258
140.338715
75.676025
156.373703
79.193985
29.606028
28.422224
15.488605
56.422680
187.947281
114.719048
25.605848
60.971497
70.694714
58.591167
106.525238
165.543427
41.429476
65.860092
160.848083
91.380554
120.807739
126.212219
52.506664
26.311060
97.948898
65.010136
81.920334
52.582245
155.555756
109.413857
114.983871
35.084801
117.920265
35.760645
260.311813
61.115349
67.035221
126.188416
57.883377
57.387730
107.542442
126.419296
187.425491
170.884216
62.039227
56.625599
93.516312
68.898865
212.796066
77.757828
38.825720
27.153605
83.685570
50.615326
87.610046
182.815125
100.167618
151.194901
191.149597
125.325226
97.394943
296.414215
111.705650
165.210388
201.914536
203.961487
204.953979
27.838451
48.084877
107.273117
60.129070
51.675816
181.440262
111.415909
134.854065
162.668640
102.073387
151.843506
104.353821
161.210297
213.420975
142.765152
177.190018
146.936142
73.571957
83.171768
180.722534
96.110268
70.802849
148.146133
155.844818
64.537243
63.579300
88.957832
63.324200
85.875610
135.989281
101.633415
50.269104
44.466778
58.464371
167.571320
146.644669
144.178192
142.600082
175.157028
145.056595
165.245926
89.556793
191.551926
307.284760
70.283131
56.080894
74.406555
57.989491
25.413584
27.701996
192.082520
50.367760
136.000862
94.878288
71.753696
68.012600
77.329201
26.282526
96.819870
44.303833
36.678036
49.653809
33.754820
36.006437
42.246975
75.492867
80.566124
90.214272
85.143196
77.085320
106.050720
247.961884
74.938393
125.729927
46.398449
51.211945
72.315804
76.074936
82.731590
114.753609
80.881882
91.134117
21.628183
109.087364
61.129219
83.917801
152.727432
99.085297
43.650726
49.699654
130.624268
142.179703
109.420212
169.876862
57.211201
155.035339
47.600319
52.897491
41.373981
151.467560
53.628925
93.566933
153.706070
28.007782
63.677761
100.401016
47.509930
119.606865
237.461014
163.899780
53.643444
137.443825
85.902573
83.932259
95.117218
74.543381
109.088310
251.847504
107.874641
129.950050
205.509720
151.793732
105.304848
67.225155
69.647381
65.268402
124.972862
145.844818
26.132627
48.356297
113.192383
170.249924
101.502014
190.862366
158.013138
45.374153
48.650303
42.540741
94.428177
19.040454
26.651814
66.197636
64.491077
118.143623
91.144386
46.545364
58.981441
270.703125
115.225342
230.537674
215.339355
69.638748
97.312691
151.168549
96.744202
139.977692
268.093445
349.016052
133.103493
85.865341
27.687733
51.849327
139.210968
98.979065
76.951660
24.067866
29.251806
30.850332
48.238911
102.769844
127.767624
73.808487
125.482674
46.179043
276.020355
264.569733
151.008789
35.482254
56.631706
71.432545
54.599728
33.827282
112.503433
72.463612
154.448593
62.406612
78.406334
39.592918
115.461235
180.183533
124.027023
77.118645
15.658192
95.447357
90.292206
28.242809
122.947815
172.445511
128.602791
46.175972
135.090927
126.286827
99.836609
87.614517
48.590672
142.743912
112.755356
82.979637
48.862377
132.653374
53.886925
67.374084
48.956013
143.108093
63.649475
41.629263
92.860306
111.990578
120.212372
84.859505
127.821175
37.264711
77.074234
113.264977
49.223442
73.605213
40.452805
67.853508
101.788773
324.751984
201.865540
122.344269
82.939117
64.426266
82.823677
99.980232
93.735741
67.544735
34.483978
109.553894
82.027107
34.112453
74.685371
56.012794
76.682526
91.629341
108.948257
187.775330
69.873837
31.356033
38.365158
50.912235
86.039284
62.520561
225.079010
35.005163
73.269966
61.412327
51.247089
37.333084
110.449120
137.460144
157.161072
129.223404
219.570328
80.423164
74.808403
47.725460
169.222198
198.291397
197.977371
91.405685
137.649200
171.651505
240.291367
114.328850
71.939880
125.369934
53.971813
234.144272
128.863632
120.946587
43.103481
100.162750
307.102264
41.214951
208.096085
62.560467
215.255676
158.092514
80.918510
174.739777
179.575500
181.061722
28.553576
50.920391
223.313950
119.242767
105.685982
71.579811
115.111427
286.529816
95.961945
79.075523
41.332169
46.381886
32.422983
43.457150
48.465370
96.854057
106.115181
132.608513
54.228214
67.846180
50.154411
49.086586
57.069672
28.403101
93.315765
41.066946
205.869720
128.205078
47.155174
207.537476
93.915413
148.361038
97.927139
42.923630
16.332283
139.396393
22.060971
151.336792
77.056763
245.591568
41.896303
142.781006
90.062721
92.467003
47.401237
184.528564
89.638550
75.126457
43.277119
72.165279
82.746704
87.176796
181.594940
69.898064
123.264465
104.122879
256.316666
115.253868
189.453201
291.770935
217.544434
255.072891
133.672821
109.776123
198.046356
35.794741
39.958818
142.432816
65.147728
43.594261
69.719719
85.471718
196.946182
118.416351
87.152260
58.940636
45.494991
242.384521
152.047714
262.205811
117.899323
108.127548
182.451645
205.916931
63.614616
22.843591
29.072466
62.739349
79.346115
109.225540
122.346001
74.706703
69.263485
144.773666
57.836376
48.809422
65.363449
56.679169
114.620476
111.338921
63.005577
52.622501
21.964695
56.245804
18.539696
160.327377
58.630535
47.797974
240.249207
431.475616
416.263062
68.443829
49.936386
147.260300
92.409492
57.960148
22.201604
255.519150
39.310381
98.926262
177.848984
69.207069
70.165283
95.452866
61.780209
122.711342
256.100266
53.485443
52.473553
73.858078
90.462273
81.336555
113.024513
78.502678
51.509449
361.199982
22.138560
36.205002
99.518196
75.877098
105.892235
174.565353
146.478683
78.312912
200.180511
96.259178
32.764168
67.567280
217.699707
69.329041
64.954182
109.976921
194.370361
266.735291
150.532181
134.447884
104.499207
68.186005
82.078156
117.360268
54.269913
52.926586
60.914463
95.189285
117.760941
72.068306
85.935867
120.577271
175.077423
103.368423
129.026100
165.182129
235.444641
61.316284
58.925602
43.153656
39.640812
35.231924
37.992147
69.673847
91.155273
27.537357
90.797356
43.889233
25.608055
65.827229
85.722267
207.753036
135.747482
47.774296
92.048576
198.330032
56.287815
98.186028
33.980673
47.697773
47.029427
198.760025
24.973191
94.514343

