# vtk DataFile Version 3.1
Tetrahedral Mesh Visualization
ASCII
DATASET UNSTRUCTURED_GRID

POINTS 277 FLOAT
0.000000 1.378113 1.754166
0.000000 0.000000 0.000000
1.998726 -0.002928 0.012801
0.000000 1.666667 0.000000
2.421121 -0.000579 1.749310
0.000000 0.000000 1.666667
1.688608 2.467517 0.011825
2.997911 2.453332 2.344212
3.997358 5.005664 0.019609
3.077771 4.999665 1.666811
5.208965 4.988275 1.629256
3.477485 3.184359 0.013397
5.386903 3.299132 0.008446
5.983951 4.992213 0.007228
7.330530 3.292528 -0.017289
6.958903 4.975755 1.322407
9.248013 2.130267 1.973255
8.678524 4.959905 1.570238
9.303994 3.286298 -0.060634
10.636435 4.958191 1.566340
11.288675 3.292285 -0.112294
11.095372 1.820243 1.451239
10.634027 1.620158 -0.097426
12.620434 1.629929 -0.155629
13.283165 3.303154 -0.169087
12.950330 1.838562 1.329800
14.619762 1.642664 -0.204145
13.957136 -0.027436 -0.191615
15.451952 2.125899 1.460037
15.325446 -0.019479 1.430690
13.322639 -0.035715 1.488096
17.278297 -0.005462 1.343478
16.620377 1.650641 -0.256374
17.955072 -0.013405 -0.278119
15.960600 -0.020012 -0.241977
18.626274 1.656462 -0.299727
18.985229 -0.006849 1.021175
19.962496 -0.010788 -0.313009
16.754082 -0.008232 3.050370
19.008778 -0.000004 2.812884
17.706854 2.684598 2.666125
18.044899 -0.001052 4.723460
16.720148 1.654175 4.748435
16.050852 -0.019985 4.760899
14.705126 -0.028037 3.111918
15.784508 2.873657 3.115575
18.764727 1.702261 4.705410
17.352936 3.331539 4.728220
19.319016 3.396402 4.681198
19.336405 5.000702 3.009259
21.029713 3.686216 4.650146
21.336370 5.004250 2.978351
19.617027 2.488763 2.034110
20.638678 4.992263 1.322791
21.907444 2.514956 2.113379
22.648478 4.994692 1.299825
23.258335 3.386493 -0.379721
23.965616 2.455975 1.907764
24.970348 3.681136 -0.393692
24.972404 1.888231 -0.392448
25.968122 2.498866 1.331721
27.237919 1.690419 -0.407734
26.679789 3.384904 -0.405644
29.254230 -0.020883 1.196257
27.974867 -0.015831 -0.409114
29.285505 1.657190 -0.411442
30.968594 -0.018241 0.897926
31.978933 -0.015298 -0.428268
31.289211 1.649465 -0.414627
29.976419 -0.014456 -0.416801
33.253193 1.638460 -0.432964
33.981339 -0.011337 -0.447477
32.666645 -0.018083 1.175252
34.589443 -0.019301 1.227102
34.986637 2.377708 2.085594
36.510433 -0.018665 1.347077
35.143349 -0.029511 2.919477
36.838135 -0.030015 3.069897
38.297474 2.486823 4.541214
37.690712 2.137711 1.724409
38.308655 -0.027834 2.053536
38.002739 -0.004538 -0.481900
38.013802 -0.024694 4.529025
36.012962 -0.038023 4.526562
36.562241 1.707610 4.536334
34.935322 1.295927 4.540328
34.856144 3.094457 4.558664
36.759495 3.440526 4.540435
34.017254 4.968971 4.571980
32.704590 3.278120 4.576711
33.280083 4.977751 2.925302
32.015678 4.982756 4.580484
35.161800 4.967576 2.953436
32.196529 2.584574 2.008190
34.592392 4.983953 1.261834
32.619305 3.319133 -0.415702
33.203606 -0.022674 2.868639
30.974977 -0.019276 2.685405
31.316553 1.638551 4.574874
33.253353 1.578145 4.560071
30.676527 3.311528 4.582370
28.677374 3.326192 4.575089
29.329449 1.650085 4.576643
30.009886 2.486598 2.057345
27.951757 2.486090 2.061089
26.679094 3.329106 4.588508
27.333843 1.658409 4.583733
24.650198 5.005846 1.275289
21.962261 4.990341 -0.353742
21.293131 3.334372 -0.350702
22.695442 1.697246 -0.373891
19.950373 4.987370 -0.328854
19.289474 3.322313 -0.312618
18.633291 4.991965 1.358219
17.943439 4.983996 -0.293855
17.282572 3.319916 -0.276261
15.935823 4.987607 -0.238946
16.633667 4.989478 1.405659
14.633612 4.978353 1.462678
13.702529 2.926261 3.085156
13.045631 1.278577 4.834846
12.692336 -0.039614 3.175225
14.058434 -0.040047 4.800195
11.324684 1.566472 4.883183
10.685080 -0.045969 3.233512
12.055158 -0.048130 4.858723
10.049502 -0.050100 4.910700
11.318044 -0.045435 1.550053
9.298574 -0.049272 1.608059
9.962040 -0.047524 -0.082075
8.653404 1.615178 -0.046286
7.964685 4.960481 -0.031573
9.950432 4.955433 -0.080206
11.238291 2.602001 3.177156
9.268903 4.957985 3.247962
10.785845 3.265280 4.899350
11.324787 4.963985 3.216231
10.047046 4.951579 4.923801
12.049702 4.958787 4.867159
8.042587 4.953217 4.973897
8.782254 3.341759 4.948682
6.977231 4.964415 3.113962
5.381244 3.342233 4.999784
6.030349 4.960484 5.007567
7.066899 3.639606 4.985606
5.147280 2.355645 3.146523
4.627612 4.987526 3.311213
3.496054 3.185178 5.015007
4.015531 4.982543 5.019903
2.369515 5.000700 3.294478
4.825208 1.605615 0.005151
4.899127 -0.005785 1.879719
6.699847 1.619824 -0.015427
7.010430 2.528909 2.181406
8.671724 -0.045206 3.286980
17.335054 4.996810 3.056720
15.337069 4.982684 3.111737
16.039660 4.984667 4.762558
14.755240 1.580564 4.785605
15.306249 3.279732 4.777737
11.956729 -0.042533 -0.138898
15.281874 3.315332 -0.223810
13.939417 4.974110 -0.186144
12.631974 4.967222 1.513354
13.336061 4.968802 3.159208
7.229775 -0.036537 1.670907
6.683853 -0.022883 3.364689
4.930974 1.632919 4.999542
6.026040 -0.017364 4.984961
4.923692 -0.011908 3.660760
4.015965 -0.004354 5.003147
7.085700 1.851133 4.984396
8.041017 -0.044163 4.956181
9.320103 1.642458 4.931884
21.024998 1.897251 4.656471
22.736124 3.405687 4.629122
24.025990 5.006777 4.625495
24.689156 3.352602 4.611071
23.341688 5.006677 2.958597
27.334902 4.995518 2.917968
26.648052 4.995454 1.257436
25.338022 5.005649 2.937515
35.147160 1.598471 -0.448197
36.835197 1.446464 -0.463476
40.005447 3.209490 3.170465
40.001965 1.596823 2.134926
38.310062 4.967148 2.080652
40.004417 3.219257 1.443556
40.003677 4.963137 2.889282
37.998890 4.966703 4.546946
40.002266 4.959918 4.550892
40.001167 3.295047 4.549007
40.005096 1.631200 4.538291
40.004196 -0.033625 2.857552
40.003834 -0.023880 1.190727
40.010651 -0.014501 -0.473812
40.006004 1.651713 -0.462981
40.008827 3.311881 -0.451985
38.308750 2.454928 -0.458985
38.012005 4.981602 -0.450728
40.009762 4.967524 1.223778
36.839275 4.962034 3.087065
36.511093 4.970619 1.364425
36.507275 3.167045 -0.456429
35.994831 4.974748 -0.451790
34.580215 3.291508 -0.437478
33.991013 4.989984 -0.424165
30.632149 3.319753 -0.414406
29.987385 4.989876 -0.408583
31.988050 4.984441 -0.415999
30.647520 4.986894 1.254800
28.638111 3.334148 -0.414374
26.719482 -0.008048 2.974746
27.245436 -0.008491 1.276196
25.330145 1.677965 4.610678
24.016373 0.014840 4.628062
26.009422 -0.001126 4.603095
25.002859 0.001322 3.289964
23.288832 1.717579 4.627549
23.280933 0.018681 3.014088
21.275890 0.005235 2.971328
22.030655 0.016858 4.657700
20.033009 0.007528 4.685073
18.034767 4.999676 4.709568
20.033585 5.003905 4.663977
22.722500 0.009504 1.323559
24.983536 -0.005696 1.494977
23.966795 0.004064 -0.379744
25.970919 -0.005095 -0.399794
25.972116 4.996456 -0.403712
25.701679 2.231397 3.086972
28.648762 4.993827 1.247488
27.977470 4.987290 -0.417784
26.026175 4.997285 4.601815
11.938899 4.966354 -0.129861
13.046211 3.073869 4.835968
14.042344 4.970392 4.808744
22.028318 5.011272 4.637366
28.723366 -0.015601 2.888298
29.333426 4.996618 2.911114
30.012806 4.991242 4.580885
31.317385 4.983374 2.924208
32.003212 -0.021254 4.560719
34.006489 -0.037548 4.541413
36.014175 4.961956 4.553873
32.629093 4.985007 1.256491
20.644531 1.662568 -0.333788
20.711660 -0.001287 1.286170
23.966928 4.996518 -0.383756
28.019684 4.996548 4.578876
40.020641 4.964925 -0.447884
3.192303 1.463268 5.013585
0.000000 3.103853 1.750106
0.000000 5.000000 1.666667
0.000000 3.333333 0.000000
2.000755 5.002151 0.014995
0.000000 5.000000 0.000000
0.000000 5.000000 3.333333
0.000000 0.000000 3.333333
1.701935 2.472432 5.012003
3.040231 0.000223 3.404783
2.001115 -0.000421 5.005802
0.000000 2.403264 3.370902
0.000000 1.666667 5.000000
0.000000 3.333333 5.000000
0.000000 0.000000 5.000000
28.000122 -0.014157 4.584032
29.999012 -0.012644 4.576795
35.993176 -0.002741 -0.465587
40.010693 -0.032791 4.532760
7.964078 -0.045214 -0.036840
2.001883 5.000946 5.009803
3.152459 1.456628 0.011606
3.988008 -0.000947 0.003467
21.965000 -0.007520 -0.350214
0.000000 5.000000 5.000000
5.969017 -0.023830 -0.011218

CELLS 734 3670
4 0 1 2 3
4 0 4 2 5
4 0 3 2 6
4 4 6 0 2
4 4 6 7 0
4 8 9 10 11
4 12 13 14 15
4 16 17 14 18
4 19 20 18 21
4 20 22 21 23
4 24 25 26 23
4 25 27 26 23
4 26 28 29 30
4 28 29 31 32
4 33 34 32 31
4 31 33 35 32
4 31 33 36 35
4 33 37 36 35
4 38 39 40 31
4 41 42 43 38
4 44 42 45 38
4 44 42 38 43
4 46 38 42 41
4 46 47 40 48
4 49 50 51 52
4 53 54 51 55
4 56 54 55 57
4 56 58 59 57
4 60 59 61 62
4 63 61 64 65
4 66 67 68 69
4 67 70 71 72
4 73 74 75 76
4 74 77 75 76
4 77 78 79 80
4 79 81 75 80
4 77 78 80 82
4 77 83 76 84
4 83 85 76 84
4 85 86 74 84
4 74 86 87 84
4 88 89 86 90
4 91 89 88 90
4 86 88 90 92
4 90 86 92 74
4 86 89 74 90
4 93 94 95 74
4 70 74 72 93
4 70 73 71 72
4 74 96 73 72
4 66 97 93 72
4 96 97 72 93
4 96 98 97 93
4 85 96 74 99
4 96 98 93 99
4 98 89 100 93
4 101 102 100 103
4 104 105 101 106
4 107 58 57 60
4 58 107 57 56
4 53 108 109 55
4 56 110 109 54
4 53 111 109 108
4 112 53 109 52
4 111 112 113 53
4 112 111 113 114
4 115 116 114 117
4 40 28 115 117
4 45 117 118 28
4 119 28 25 44
4 120 44 121 122
4 123 121 124 125
4 125 123 126 124
4 127 128 21 124
4 16 129 128 21
4 16 18 14 130
4 16 17 18 19
4 131 17 132 18
4 16 19 18 21
4 133 16 19 134
4 135 134 133 136
4 135 137 136 138
4 137 134 139 140
4 141 142 143 144
4 145 146 147 7
4 142 148 147 146
4 7 146 147 149
4 10 7 9 146
4 145 150 7 151
4 152 151 150 153
4 16 128 154 124
4 124 21 121 133
4 25 28 30 44
4 28 38 45 40
4 45 47 40 42
4 155 45 156 47
4 157 156 47 155
4 155 45 40 117
4 45 42 158 159
4 44 42 43 158
4 119 45 158 159
4 120 44 158 119
4 25 127 21 121
4 25 27 160 30
4 127 25 160 30
4 25 127 121 30
4 44 25 121 30
4 28 30 44 29
4 119 28 44 45
4 119 28 118 25
4 28 24 26 161
4 26 32 29 28
4 28 31 29 38
4 46 38 41 39
4 46 38 39 40
4 28 117 40 45
4 118 28 117 161
4 162 24 118 161
4 118 119 163 164
4 136 119 164 163
4 25 133 21 163
4 128 16 21 124
4 165 166 153 154
4 166 167 168 169
4 167 168 169 170
4 171 168 172 166
4 124 173 126 154
4 123 121 133 124
4 120 125 122 121
4 122 158 44 43
4 47 46 40 42
4 52 50 174 48
4 175 50 174 54
4 176 175 177 178
4 179 60 180 181
4 64 69 63 65
4 68 72 67 66
4 70 73 182 71
4 74 79 183 75
4 184 78 185 79
4 79 184 186 187
4 186 184 188 187
4 184 189 190 191
4 184 78 79 186
4 78 189 184 191
4 189 184 190 188
4 184 78 191 192
4 184 78 192 185
4 192 78 80 185
4 193 80 194 185
4 195 81 196 194
4 81 79 196 194
4 197 187 196 198
4 187 79 185 196
4 79 184 187 185
4 197 199 187 198
4 199 197 187 200
4 199 200 187 186
4 78 201 79 186
4 189 201 87 78
4 202 201 79 74
4 201 74 92 87
4 201 202 92 74
4 201 202 79 186
4 202 203 74 79
4 202 198 203 79
4 204 202 199 203
4 202 203 205 74
4 202 204 205 203
4 182 203 74 205
4 74 203 183 79
4 79 203 183 198
4 79 81 198 183
4 81 79 198 196
4 187 79 196 198
4 202 198 79 186
4 202 204 94 205
4 94 95 205 206
4 207 208 209 210
4 208 207 211 210
4 104 103 211 65
4 104 60 212 213
4 214 215 216 217
4 218 219 220 221
4 222 174 220 221
4 46 39 222 174
4 52 46 40 48
4 40 49 52 48
4 53 49 52 113
4 40 49 155 113
4 155 45 47 40
4 157 47 223 155
4 49 223 224 48
4 52 50 51 54
4 175 54 57 178
4 218 175 54 57
4 225 219 54 57
4 218 175 57 177
4 57 217 219 218
4 219 225 226 57
4 225 227 226 57
4 59 110 57 227
4 59 60 61 228
4 61 60 213 228
4 64 61 213 228
4 63 61 213 64
4 61 104 211 65
4 180 60 104 62
4 58 229 62 180
4 58 60 180 62
4 60 61 104 62
4 60 226 230 212
4 226 60 213 212
4 60 104 212 230
4 179 60 230 104
4 104 211 231 62
4 180 229 62 232
4 180 232 62 231
4 179 60 104 180
4 233 181 105 179
4 181 105 179 230
4 105 214 106 230
4 105 214 230 177
4 215 214 218 217
4 215 217 218 219
4 218 215 219 221
4 218 175 174 54
4 39 52 220 174
4 39 46 52 174
4 115 52 112 35
4 28 115 117 161
4 162 118 116 161
4 24 162 118 163
4 20 19 234 163
4 25 133 163 119
4 120 119 158 235
4 236 119 235 159
4 235 119 158 159
4 119 235 133 136
4 138 235 236 164
4 45 47 42 159
4 46 38 40 42
4 49 50 52 48
4 237 175 176 178
4 181 233 177 176
4 180 179 231 104
4 207 103 65 211
4 207 103 68 65
4 65 66 103 68
4 103 66 97 93
4 66 103 97 63
4 213 104 63 238
4 238 97 103 63
4 104 102 103 238
4 104 106 212 230
4 214 212 106 230
4 214 212 216 106
4 214 212 217 216
4 214 212 230 217
4 226 217 230 212
4 226 60 230 57
4 181 60 57 230
4 179 105 104 230
4 179 105 101 104
4 104 239 103 101
4 239 101 240 100
4 91 241 240 100
4 241 239 240 100
4 239 241 103 100
4 103 210 93 241
4 103 207 93 210
4 210 103 231 239
4 103 239 104 231
4 103 104 63 65
4 65 66 63 103
4 65 66 68 69
4 68 72 66 93
4 96 98 242 97
4 85 96 99 243
4 85 86 99 74
4 86 89 99 74
4 88 86 244 92
4 74 86 92 87
4 201 244 87 92
4 244 86 87 92
4 90 74 92 94
4 94 95 206 245
4 95 209 206 245
4 245 207 95 209
4 208 232 231 211
4 180 104 231 62
4 181 60 107 57
4 54 175 51 178
4 50 52 174 54
4 246 36 52 247
4 246 36 37 35
4 52 31 36 35
4 31 39 52 36
4 39 46 222 41
4 39 222 174 220
4 174 218 220 221
4 218 219 54 220
4 225 219 220 54
4 56 110 54 57
4 110 56 59 57
4 60 59 226 228
4 60 226 213 228
4 57 217 230 226
4 214 217 230 218
4 218 57 230 177
4 181 105 230 177
4 179 60 181 230
4 58 107 180 60
4 229 107 58 248
4 229 107 180 58
4 60 58 59 62
4 58 107 56 248
4 108 56 109 55
4 108 56 55 248
4 107 56 55 57
4 107 181 57 178
4 57 181 177 178
4 181 176 177 178
4 233 181 177 105
4 249 239 101 240
4 91 89 241 100
4 89 91 241 90
4 210 245 93 241
4 245 241 90 93
4 93 94 90 245
4 74 202 92 94
4 205 204 94 206
4 202 198 199 203
4 202 198 186 199
4 199 197 200 250
4 199 186 187 198
4 200 186 188 187
4 184 189 186 188
4 201 189 87 244
4 189 201 78 186
4 201 78 79 87
4 189 78 184 186
4 186 79 187 198
4 74 201 79 87
4 74 79 84 87
4 79 78 84 87
4 77 78 84 79
4 74 77 84 79
4 74 85 84 76
4 83 243 76 85
4 85 96 243 76
4 73 96 74 76
4 96 93 74 99
4 89 93 99 74
4 93 94 74 90
4 93 94 245 95
4 207 95 68 93
4 95 70 68 93
4 95 70 74 205
4 74 70 182 205
4 94 95 74 205
4 241 89 90 93
4 104 179 231 239
4 181 60 180 107
4 107 57 55 178
4 57 54 55 178
4 53 49 51 52
4 40 49 113 52
4 155 47 223 48
4 45 47 159 156
4 119 156 45 159
4 120 44 119 121
4 16 173 124 154
4 166 167 169 145
4 145 7 147 251
4 9 7 252 149
4 253 254 252 255
4 256 253 255 254
4 6 9 252 255
4 253 257 149 252
4 7 258 259 260
4 260 261 251 170
4 169 260 251 170
4 169 251 167 170
4 166 167 145 171
4 16 22 18 130
4 25 24 20 23
4 24 25 118 28
4 119 156 118 45
4 119 28 45 118
4 119 45 44 158
4 44 38 28 29
4 25 28 26 30
4 25 24 26 28
4 24 20 234 163
4 162 24 234 163
4 163 119 118 25
4 235 135 133 136
4 135 134 140 133
4 145 141 153 144
4 145 260 169 151
4 0 258 4 5
4 259 258 262 263
4 264 259 262 263
4 258 7 262 0
4 260 258 259 261
4 258 261 263 259
4 261 258 263 265
4 261 260 251 259
4 167 251 169 145
4 145 260 251 169
4 166 167 171 168
4 16 171 153 140
4 137 135 136 134
4 138 135 235 136
4 235 138 136 164
4 236 119 156 164
4 157 156 159 47
4 155 47 48 40
4 40 49 48 155
4 46 52 174 48
4 247 225 220 54
4 110 225 57 227
4 60 59 57 226
4 104 61 211 62
4 232 211 62 231
4 103 104 211 231
4 239 210 103 241
4 241 93 103 100
4 68 72 93 70
4 103 207 68 93
4 207 103 211 210
4 210 208 231 211
4 103 210 231 211
4 245 207 210 93
4 245 207 209 210
4 245 207 93 95
4 70 95 74 93
4 70 73 74 182
4 182 203 183 74
4 202 74 205 94
4 93 89 90 74
4 89 241 100 93
4 93 98 103 100
4 101 104 102 103
4 104 101 102 106
4 106 238 104 212
4 266 216 212 106
4 106 238 212 266
4 106 238 102 104
4 267 266 238 102
4 97 102 267 238
4 106 238 266 102
4 97 102 238 103
4 97 102 103 98
4 97 102 98 267
4 97 98 242 267
4 96 98 99 242
4 89 98 99 93
4 239 101 100 103
4 104 179 239 101
4 179 249 239 101
4 105 179 101 249
4 233 105 249 179
4 177 181 57 230
4 175 57 177 178
4 175 237 51 178
4 55 54 51 178
4 112 111 109 53
4 112 53 52 113
4 117 115 113 114
4 116 118 117 161
4 115 116 117 161
4 28 115 161 32
4 29 32 26 34
4 26 30 29 27
4 34 26 29 27
4 29 34 31 32
4 31 115 32 35
4 31 115 28 32
4 246 112 52 35
4 246 247 52 54
4 247 110 225 54
4 59 227 57 226
4 213 104 238 212
4 104 103 63 238
4 97 98 103 93
4 70 73 72 74
4 71 182 268 73
4 182 75 268 73
4 182 75 183 268
4 183 81 268 75
4 182 75 74 183
4 79 81 183 75
4 79 81 80 194
4 78 192 80 82
4 192 193 80 82
4 269 193 192 82
4 193 192 80 185
4 80 79 194 185
4 77 74 75 79
4 85 96 76 74
4 96 243 242 99
4 98 102 103 100
4 104 105 106 230
4 214 218 230 177
4 50 175 51 54
4 49 155 223 48
4 157 156 236 159
4 236 119 159 156
4 235 119 164 136
4 236 119 164 235
4 133 235 120 123
4 120 235 133 119
4 135 123 235 133
4 124 173 123 126
4 173 172 126 154
4 166 171 154 172
4 172 171 154 173
4 171 16 154 173
4 171 166 154 153
4 16 171 154 153
4 124 173 16 133
4 124 173 133 123
4 25 133 119 121
4 19 16 133 21
4 163 19 133 21
4 134 19 133 136
4 133 119 136 163
4 133 19 163 136
4 132 20 18 19
4 20 132 234 19
4 20 19 163 21
4 22 20 21 18
4 16 22 21 18
4 128 129 127 21
4 160 129 21 127
4 160 21 25 127
4 25 20 21 23
4 25 27 23 160
4 25 27 30 26
4 23 22 21 160
4 16 129 21 22
4 128 130 165 270
4 128 130 270 129
4 128 130 16 165
4 16 165 153 154
4 17 16 14 153
4 131 17 18 14
4 17 141 153 15
4 12 10 15 153
4 15 17 14 153
4 153 16 14 130
4 16 129 22 130
4 128 130 129 16
4 16 128 165 154
4 151 166 153 165
4 260 145 7 151
4 9 6 252 7
4 7 262 252 149
4 260 259 7 251
4 7 259 147 251
4 264 259 271 149
4 259 7 147 149
4 146 148 147 149
4 271 259 147 149
4 148 271 147 149
4 146 142 143 141
4 144 141 140 139
4 141 134 140 139
4 143 141 144 139
4 142 145 141 146
4 145 142 141 144
4 148 142 143 146
4 145 7 10 146
4 145 150 151 153
4 151 272 150 7
4 151 272 273 150
4 151 272 4 273
4 4 272 2 273
4 151 272 7 4
4 4 260 7 151
4 166 145 151 153
4 166 145 169 151
4 171 166 153 145
4 133 16 140 173
4 124 16 21 133
4 25 21 160 23
4 21 129 160 22
4 121 21 124 127
4 121 120 133 119
4 123 121 125 120
4 123 121 120 133
4 25 133 121 21
4 25 20 163 21
4 118 24 28 161
4 26 28 161 32
4 40 115 28 31
4 115 52 113 112
4 246 112 109 52
4 246 52 109 54
4 56 54 109 55
4 56 107 55 248
4 58 60 59 57
4 63 61 65 104
4 68 72 70 67
4 182 75 73 74
4 77 79 75 80
4 196 79 185 194
4 79 78 185 80
4 77 78 82 84
4 83 77 82 84
4 77 74 84 76
4 96 74 93 72
4 103 66 93 68
4 65 66 69 63
4 63 61 104 213
4 61 60 104 213
4 59 227 226 228
4 274 110 227 225
4 246 36 247 37
4 246 36 35 52
4 52 115 40 31
4 28 31 38 40
4 44 42 158 45
4 120 44 122 158
4 135 133 140 173
4 171 16 173 140
4 171 144 153 140
4 141 144 140 153
4 10 141 15 153
4 10 12 15 13
4 10 8 12 13
4 8 10 12 11
4 8 9 11 255
4 9 253 149 252
4 257 262 149 252
4 262 259 149 7
4 258 7 4 260
4 259 258 7 262
4 262 0 7 252
4 0 6 7 252
4 254 6 252 255
4 0 3 6 252
4 6 3 254 252
4 272 6 11 7
4 4 6 272 7
4 4 6 2 272
4 9 6 11 255
4 9 253 252 255
4 262 264 257 149
4 257 264 275 271
4 259 264 262 149
4 257 264 271 149
4 9 146 7 149
4 10 7 11 9
4 7 12 10 11
4 145 150 153 12
4 12 145 10 153
4 145 146 10 141
4 145 142 147 146
4 171 145 153 144
4 171 142 145 144
4 142 171 145 167
4 142 145 147 167
4 167 145 147 251
4 145 260 7 251
4 145 150 12 7
4 12 145 7 10
4 12 152 153 14
4 152 153 14 130
4 152 151 153 165
4 165 152 276 270
4 152 151 165 276
4 165 152 270 130
4 152 151 276 150
4 276 150 151 273
4 272 7 11 150
4 7 12 11 150
4 153 150 152 12
4 165 16 153 130
4 165 152 130 153
4 15 12 153 14
4 13 131 14 15
4 17 131 15 14
4 17 132 18 19
4 25 24 163 20
4 25 24 118 163
4 119 156 164 118
4 118 117 45 156
4 155 45 117 156
4 113 40 117 155
4 50 49 224 48
4 49 50 224 51
4 50 237 224 51
4 237 50 175 51
4 52 54 220 174
4 52 247 220 54
4 39 247 220 52
4 39 247 52 36
4 115 52 35 31
4 40 115 52 113
4 40 115 113 117
4 115 112 113 114
4 53 52 51 54
4 54 53 109 55
4 52 53 109 54
4 110 246 109 54
4 247 110 54 246
4 247 110 274 225
4 246 274 37 247
4 247 110 246 274
4 110 225 54 57
4 57 217 226 219
4 57 217 218 230
4 219 218 54 57
4 218 54 174 220
4 46 39 52 40
4 39 31 52 40
4 38 42 45 40
4 28 38 44 45
4 121 25 44 119
4 123 135 173 133
4 134 153 140 16
4 134 16 140 133
4 137 135 134 140
4 134 153 141 140
4 134 153 16 17
4 16 17 19 134
4 134 153 17 141
4 153 145 10 141
4 6 9 11 7
4 258 7 0 4
4 1 0 2 5

CELL_TYPES 734
10
10
10
10
10
10
10
10
10
10
10
10
10
10
10
10
10
10
10
10
10
10
10
10
10
10
10
10
10
10
10
10
10
10
10
10
10
10
10
10
10
10
10
10
10
10
10
10
10
10
10
10
10
10
10
10
10
10
10
10
10
10
10
10
10
10
10
10
10
10
10
10
10
10
10
10
10
10
10
10
10
10
10
10
10
10
10
10
10
10
10
10
10
10
10
10
10
10
10
10
10
10
10
10
10
10
10
10
10
10
10
10
10
10
10
10
10
10
10
10
10
10
10
10
10
10
10
10
10
10
10
10
10
10
10
10
10
10
10
10
10
10
10
10
10
10
10
10
10
10
10
10
10
10
10
10
10
10
10
10
10
10
10
10
10
10
10
10
10
10
10
10
10
10
10
10
10
10
10
10
10
10
10
10
10
10
10
10
10
10
10
10
10
10
10
10
10
10
10
10
10
10
10
10
10
10
10
10
10
10
10
10
10
10
10
10
10
10
10
10
10
10
10
10
10
10
10
10
10
10
10
10
10
10
10
10
10
10
10
10
10
10
10
10
10
10
10
10
10
10
10
10
10
10
10
10
10
10
10
10
10
10
10
10
10
10
10
10
10
10
10
10
10
10
10
10
10
10
10
10
10
10
10
10
10
10
10
10
10
10
10
10
10
10
10
10
10
10
10
10
10
10
10
10
10
10
10
10
10
10
10
10
10
10
10
10
10
10
10
10
10
10
10
10
10
10
10
10
10
10
10
10
10
10
10
10
10
10
10
10
10
10
10
10
10
10
10
10
10
10
10
10
10
10
10
10
10
10
10
10
10
10
10
10
10
10
10
10
10
10
10
10
10
10
10
10
10
10
10
10
10
10
10
10
10
10
10
10
10
10
10
10
10
10
10
10
10
10
10
10
10
10
10
10
10
10
10
10
10
10
10
10
10
10
10
10
10
10
10
10
10
10
10
10
10
10
10
10
10
10
10
10
10
10
10
10
10
10
10
10
10
10
10
10
10
10
10
10
10
10
10
10
10
10
10
10
10
10
10
10
10
10
10
10
10
10
10
10
10
10
10
10
10
10
10
10
10
10
10
10
10
10
10
10
10
10
10
10
10
10
10
10
10
10
10
10
10
10
10
10
10
10
10
10
10
10
10
10
10
10
10
10
10
10
10
10
10
10
10
10
10
10
10
10
10
10
10
10
10
10
10
10
10
10
10
10
10
10
10
10
10
10
10
10
10
10
10
10
10
10
10
10
10
10
10
10
10
10
10
10
10
10
10
10
10
10
10
10
10
10
10
10
10
10
10
10
10
10
10
10
10
10
10
10
10
10
10
10
10
10
10
10
10
10
10
10
10
10
10
10
10
10
10
10
10
10
10
10
10
10
10
10
10
10
10
10
10
10
10
10
10
10
10
10
10
10
10
10
10
10
10
10
10
10
10
10
10
10
10
10
10
10
10
10
10
10
10
10
10
10
10
10
10
10
10
10
10
10
10
10
10
10
10
10
10
10
10
10
10
10
10
10
10
10
10
10
10
10
10
10
10
10
10
10
10
10
10
10
10
10
10
10
10
10
10
10
10
10
10
10
10
10
10
10
10
10
10
10
10
10
10
10
10
10
10
10
10
10
10
10
10
10
10
10
10
10
10
10
10
10
10
10
10
10

CELL_DATA 734
SCALARS potentialEnergy FLOAT 1
LOOKUP_TABLE default
44.739956
39.843708
78.911064
72.196789
126.568741
32.517179
152.559311
169.316895
198.348251
130.368797
66.483040
37.137918
61.324654
76.191162
109.771042
24.549874
15.205791
85.036171
79.819122
58.373508
63.141251
65.269234
33.237059
128.778564
41.773062
146.820114
184.562332
61.210991
38.655497
58.183907
85.134239
57.199009
76.769814
36.404478
52.005146
121.653328
133.635201
60.223736
44.043354
93.227005
65.007912
29.931099
30.345619
36.328850
119.861145
143.473419
137.379005
85.694511
86.681976
82.826767
47.524315
70.823887
107.083931
137.129234
67.180298
88.604317
123.123093
61.436340
58.694302
68.966053
76.741768
268.348999
103.829353
86.667931
38.287498
63.944687
123.329079
103.808037
148.646667
108.170074
47.398682
81.889603
96.316467
62.085503
74.789215
121.757584
144.390259
152.223480
143.663620
82.470192
140.640533
122.923752
74.262169
133.022728
107.666824
159.561539
141.822693
75.699081
49.456463
254.463959
108.500404
99.692055
61.945053
46.441658
65.612724
240.456467
95.350128
42.975830
73.001850
58.124641
71.552433
170.457886
76.615173
68.058262
101.749802
71.457405
96.732658
66.415722
100.550911
118.649376
55.389713
78.494583
47.858326
75.189224
104.350151
82.462456
97.767189
41.062460
57.903244
56.413635
159.069733
42.792866
166.156479
107.553047
80.865089
262.084259
88.236710
192.711227
67.735924
43.087914
106.757111
89.114136
83.555428
81.056839
63.837372
27.553881
32.482662
101.852409
59.492023
49.471039
60.261787
44.260254
34.233150
74.557823
25.464984
141.508575
58.517513
58.223190
76.545135
65.645416
228.115097
73.947460
53.223789
23.066425
76.994896
49.813667
49.446648
50.301647
90.811714
27.834396
73.116684
91.994331
140.914703
111.969986
159.099014
94.071922
220.814972
249.885300
209.060013
156.572159
60.965820
46.268120
91.852097
81.170204
35.567102
50.628803
61.915821
45.203304
32.129572
46.839336
87.454697
67.092655
67.422386
151.399200
56.057957
57.316395
80.123466
77.740532
63.421600
29.846941
66.963230
99.082245
53.066788
54.361458
88.899872
139.552078
88.502487
137.727417
251.565826
75.949677
99.840462
141.008392
22.238783
44.282185
61.060066
67.178383
79.097931
17.407827
28.477308
40.684587
28.621237
28.998596
20.700078
34.438629
18.538923
60.535339
138.699936
44.643818
23.235427
112.556648
74.126526
61.676220
48.242973
65.357548
85.430908
191.612091
64.624786
50.247990
91.654503
53.581760
134.099373
38.437630
27.384491
66.708199
195.143967
82.138977
86.811852
73.192963
147.966629
109.326256
104.603279
90.610809
16.566819
92.965614
60.811012
72.676277
172.025345
46.818573
87.603065
41.211077
37.722218
67.571865
57.411964
51.856373
19.315206
145.757217
70.072556
85.966759
115.990166
60.813366
52.742386
44.094807
92.947769
103.166626
162.982269
71.693256
61.620117
76.198982
168.209793
71.741844
69.493782
299.286041
141.248459
130.447525
60.882488
31.647202
68.760891
56.821102
195.917511
99.574371
64.745975
103.874344
117.472389
34.592131
58.226521
149.506683
42.056614
75.168373
50.919319
129.620461
46.264507
78.097923
107.825668
83.425812
59.532730
42.820469
60.134178
41.441938
264.611221
40.627617
86.674538
155.212936
73.975685
70.290909
161.589813
66.749393
32.023441
93.496414
99.295357
133.017525
113.008583
41.601849
57.524010
43.865154
37.989183
45.681953
47.261936
86.744934
39.537403
95.471901
54.614349
73.161415
62.002029
121.861725
55.878033
38.278053
22.306875
35.922693
216.006897
58.846622
169.122360
88.167999
110.611832
86.317459
169.280579
62.471188
36.311369
33.723499
173.065903
26.671570
126.974876
32.309370
40.062521
109.417183
40.818401
50.317162
34.742514
59.238163
42.821289
108.444672
73.707916
102.069862
89.040672
98.282547
76.660721
83.951530
120.410110
84.231400
84.127953
121.254036
95.991272
53.301315
123.550095
119.316261
128.329041
133.020752
77.881767
15.780023
80.508141
108.883644
123.394699
128.939720
228.305054
143.018707
78.063980
56.008907
51.265827
44.742825
88.381683
40.442184
135.719559
143.938141
125.485100
112.280296
294.285522
113.256035
71.927170
113.276062
121.967606
112.874214
117.984734
45.289665
75.935471
122.993080
60.824482
46.024860
95.405602
150.390472
82.146759
202.718994
95.953468
31.639425
152.275452
107.975677
72.321995
82.409805
72.918022
23.075889
148.976013
230.908905
146.057480
199.835648
88.902809
66.891781
80.612259
106.035637
89.095024
92.884773
90.694176
94.543800
68.700352
36.805544
61.953014
59.714619
47.492352
33.445530
129.008888
215.986969
55.001793
63.885559
128.640533
219.487442
77.078758
174.395996
94.160934
33.919149
68.396000
75.036850
133.561165
117.912956
92.244553
67.149605
90.912361
46.024059
167.341110
83.853569
49.340607
70.788227
38.995070
95.495026
21.612386
52.141586
40.809639
46.761829
41.555569
60.030655
73.636589
41.416765
99.386887
167.478683
86.441788
63.401237
40.104774
47.828587
137.566544
139.385284
87.281616
100.812828
60.375965
65.651661
74.105743
42.704784
48.305691
38.446836
56.533615
50.685360
109.384918
129.135788
74.308884
38.967218
49.504810
40.956087
55.185841
65.824184
30.115061
54.826420
66.920246
87.211609
156.229172
51.632603
83.464310
71.550392
154.215836
56.013054
41.351627
185.501175
122.490112
205.163208
56.123077
32.468122
54.950218
173.006729
136.776825
51.311119
24.816383
73.897655
94.859047
55.096237
72.791134
111.019165
88.493584
96.966103
91.358444
108.714508
106.891769
68.645836
101.400810
179.820724
160.083511
257.522552
307.469025
274.372955
182.947021
178.003738
180.192261
67.498287
145.964020
122.739159
120.224121
81.748138
80.382713
85.683144
152.927444
77.865158
66.377190
119.268410
76.395149
119.045891
89.332176
72.637676
25.513320
122.485840
78.490479
99.534683
41.660135
123.039970
64.372486
169.844513
116.588203
277.160034
141.787003
212.244339
212.304276
116.295464
129.044991
72.291569
224.718063
66.364059
127.086800
74.829445
102.286324
81.422287
97.442978
148.781464
156.926941
95.508705
219.784393
125.145515
72.411819
94.313576
95.441635
398.133301
320.414764
179.797882
63.249874
148.373398
119.067230
68.785583
35.138956
70.405033
62.770981
102.919785
188.755417
85.696960
234.977173
138.019760
73.171310
86.273682
101.445328
62.313965
217.025925
43.407749
92.599754
131.168167
166.603241
90.309250
76.108345
125.359978
63.736172
89.952843
40.390427
202.256302
49.728092
179.558670
126.051453
122.156578
100.766281
92.780128
26.156614
88.933304
67.102139
81.037117
40.327583
72.386265
111.479607
30.615040
100.883690
36.375364
44.139759
49.149582
55.488190
172.463821
87.375481
59.620712
90.847443
58.750637
73.049057
164.266357
163.725723
191.891495
78.756294
59.860943
148.056152
53.022945
55.981339
44.985058
50.289066
174.072601
176.807785
134.713249
55.267776
131.945824
67.876461
196.322830
189.597748
113.102654
103.581886
122.834129
121.488281
65.156734
51.086811
47.488491
112.995262
150.457230
81.398575
160.785797
144.367172
300.369049
122.802437
154.413239
407.514587
149.470978
273.195831
229.477127
204.478668
164.798508
97.066154
69.333611
41.972075
377.924072
175.644196
233.540863
55.802032
95.978951
83.227425
195.441666
283.906555
95.971573
147.404755
323.677826
100.372345
141.553268
500.354401
322.592926
141.714691
97.728325
254.764740
102.427635
80.154381
74.545540
100.264252
60.600437
47.878078
28.946079
28.145279
28.346123
103.610268
55.510029
49.331467
26.573856
81.020943
50.582836
70.141827
33.405491
49.248466
158.707916
107.549583
60.224709
52.684109
65.966557
38.520706
52.035324
94.726807
114.914597
146.546814
83.534996
30.398170
76.789406
116.152763
93.189629
98.506454
102.636124
96.316063
165.698853
206.718216
51.716274
123.295349
87.037170
107.883804
108.754448
98.635635
245.997787
55.317825
37.292505

