# vtk DataFile Version 3.1
Tetrahedral Mesh Visualization
ASCII
DATASET UNSTRUCTURED_GRID

POINTS 277 FLOAT
0.000000 1.378113 1.754166
0.000000 0.000000 0.000000
2.001646 0.010659 0.023823
0.000000 1.666667 0.000000
2.422665 0.005680 1.761073
0.000000 0.000000 1.666667
1.695637 2.476712 0.023626
2.999227 2.452147 2.367041
3.994989 5.009303 0.061512
3.070495 5.002598 1.700476
5.202526 5.004897 1.677099
3.487744 3.186979 0.050640
5.403841 3.314103 0.062180
5.992293 5.017642 0.075482
7.367827 3.362037 0.062594
6.963783 5.016755 1.395806
9.257038 2.203695 2.093316
8.692049 5.026332 1.682874
9.355600 3.372035 0.070172
10.661824 5.021418 1.736735
11.353863 3.371237 0.072634
11.121065 1.894027 1.625334
10.691654 1.707810 0.067023
12.692554 1.703649 0.078955
13.357563 3.365841 0.095610
12.980612 1.900095 1.576973
14.695980 1.698474 0.110166
14.026212 0.035557 0.089719
15.479151 2.156435 1.814115
15.341232 0.015081 1.767358
13.341916 0.024410 1.745034
17.297598 0.001541 1.746636
16.693811 1.682370 0.135154
18.013227 0.001161 0.140612
16.023720 0.020256 0.116866
18.687563 1.664298 0.150882
19.007450 -0.014993 1.470310
20.008528 -0.027341 0.161748
16.724752 -0.001266 3.433036
18.990368 -0.009711 3.268065
17.705311 2.682621 3.090813
17.970076 -0.003653 5.140538
16.661386 1.662630 5.134902
15.967697 0.001745 5.121119
14.670238 0.000613 3.429101
15.769840 2.886127 3.482641
18.711977 1.696498 5.154784
17.300652 3.332723 5.146284
19.270918 3.386077 5.156237
19.335278 4.985304 3.496751
20.989786 3.661697 5.174640
21.333885 4.967858 3.505914
19.631447 2.473725 2.518013
20.678814 4.967764 1.835066
21.914206 2.470766 2.648834
22.673067 4.959023 1.843050
23.302237 3.340376 0.176586
23.967678 2.399550 2.478179
25.006950 3.625266 0.181097
24.999296 1.831322 0.180255
25.978609 2.442810 1.910840
27.256832 1.633471 0.178661
26.714573 3.332382 0.183064
29.254181 -0.072279 1.771108
27.986267 -0.063838 0.169300
29.309752 1.600778 0.164592
30.971680 -0.078671 1.480195
31.993542 -0.065911 0.159715
31.306250 1.594946 0.172590
29.992245 -0.068435 0.153666
33.272034 1.577079 0.176139
33.988438 -0.083401 0.170031
32.666737 -0.076985 1.776849
34.583485 -0.089050 1.853423
34.984741 2.301270 2.727689
36.497112 -0.092964 1.964545
35.129505 -0.107191 3.549126
36.822437 -0.111095 3.686737
38.295948 2.384277 5.173669
37.686405 2.067814 2.353100
38.290218 -0.105074 2.671735
37.997833 -0.074884 0.141843
37.990444 -0.144766 5.133242
35.997829 -0.130687 5.151914
36.560356 1.615316 5.168748
34.930573 1.216543 5.175620
34.844414 3.016052 5.189650
36.760746 3.347464 5.189662
34.003471 4.888458 5.203601
32.687843 3.209301 5.179274
33.276573 4.913045 3.545906
31.994097 4.910313 5.185709
35.164917 4.886995 3.599340
32.197330 2.528747 2.601311
34.602772 4.905700 1.900399
32.643513 3.259646 0.180595
33.190205 -0.084825 3.482543
30.970741 -0.072519 3.268142
31.309189 1.577084 5.167160
33.240818 1.507556 5.177827
30.663612 3.252408 5.167759
28.660666 3.265625 5.165030
29.323879 1.595002 5.163149
30.012753 2.431202 2.640155
27.954056 2.425658 2.647117
26.657099 3.273165 5.169005
27.320818 1.605774 5.164108
24.667253 4.950284 1.849342
22.029387 4.957831 0.167028
21.353844 3.305637 0.166659
22.740202 1.646963 0.177510
20.032404 4.979129 0.167592
19.358883 3.323428 0.161868
18.678543 4.994670 1.829493
18.034462 5.004535 0.155114
17.360804 3.347431 0.146571
16.036594 5.027376 0.149187
16.676210 5.009709 1.819103
14.672131 5.014138 1.789174
13.687426 2.965410 3.368275
12.972452 1.327877 5.086433
12.659495 0.009417 3.408640
13.969057 0.001516 5.093526
11.258196 1.623206 5.073258
10.655216 0.015205 3.389947
11.978944 0.002654 5.070660
9.987756 0.007626 5.054148
11.338861 0.028918 1.726601
9.320286 0.031655 1.718184
10.020891 0.042014 0.050320
8.700560 1.704030 0.059433
8.002005 5.043119 0.080490
10.015511 5.034662 0.077274
11.217496 2.656144 3.360744
9.246025 5.018957 3.373331
10.722038 3.323860 5.074492
11.300002 5.015099 3.407976
9.987123 5.016556 5.074498
11.980766 5.014044 5.082847
7.986526 5.007319 5.070612
8.726034 3.402166 5.062365
6.955958 5.010386 3.181784
5.350742 3.354979 5.061098
5.985796 4.996182 5.068066
7.020479 3.684289 5.066844
5.139837 2.364529 3.191008
4.616727 4.990496 3.359259
3.483650 3.169602 5.051833
3.990886 4.974939 5.071060
2.369655 4.993931 3.326944
4.845348 1.612626 0.051999
4.909319 -0.005866 1.917543
6.735598 1.683015 0.054448
7.011321 2.575621 2.248990
8.652862 0.018020 3.386080
17.331091 4.993798 3.487607
15.322007 4.997162 3.464211
15.985316 4.996428 5.134502
14.687877 1.613667 5.105475
15.245162 3.303558 5.124812
12.022379 0.040858 0.062737
15.363522 3.360591 0.130593
14.032481 5.029974 0.116493
12.665014 5.018183 1.757647
13.317207 5.006456 3.430883
7.249358 0.019337 1.734472
6.672178 0.002549 3.417889
4.905925 1.630651 5.048570
6.003781 -0.012097 5.036354
4.914948 -0.009936 3.700885
4.000605 -0.023665 5.032656
7.037482 1.889307 5.050898
7.994008 0.003763 5.040789
9.262864 1.704316 5.063884
20.979471 1.876226 5.176422
22.698740 3.355218 5.177961
23.998940 4.950935 5.176937
24.657171 3.287164 5.173230
23.330681 4.956677 3.511140
27.329966 4.935855 3.507414
26.663639 4.943558 1.846642
25.332165 4.942966 3.514736
35.153759 1.520875 0.173294
36.834297 1.366760 0.159056
40.007015 3.112864 3.801611
39.992214 1.512353 2.763003
38.318306 4.886493 2.732084
40.011005 3.141014 2.076239
40.009434 4.873172 3.539022
38.012444 4.863828 5.197464
40.010517 4.843591 5.202147
40.001064 3.181978 5.185927
39.994156 1.520621 5.170761
39.985916 -0.122472 3.480835
39.987526 -0.102270 1.813224
39.995087 -0.087383 0.150411
39.998356 1.584358 0.166223
40.006355 3.251379 0.185890
38.306870 2.390733 0.170526
38.008736 4.923316 0.207741
40.016140 4.894804 1.871692
36.848087 4.880392 3.746713
36.516586 4.892413 2.021516
36.512257 3.085883 0.178785
36.016953 4.907365 0.198794
34.602592 3.220582 0.192743
34.018555 4.915964 0.199593
30.659151 3.269915 0.173101
30.006893 4.932723 0.173581
32.016956 4.936039 0.196846
30.658297 4.937506 1.843720
28.667885 3.274605 0.171659
26.711075 -0.072539 3.559285
27.246420 -0.069885 1.863393
25.308489 1.615722 5.174799
23.978407 -0.045180 5.183161
25.986050 -0.057631 5.180117
24.983557 -0.054100 3.862575
23.246012 1.659482 5.185173
23.260883 -0.041962 3.570198
21.252327 -0.024641 3.493508
21.972496 -0.021475 5.186730
19.966225 -0.000290 5.173323
17.992105 4.992296 5.159714
19.997335 4.992222 5.162457
22.722637 -0.048829 1.873421
24.983805 -0.057240 2.070723
23.993343 -0.059876 0.184578
25.986729 -0.066704 0.182884
26.010981 4.944592 0.180920
25.694988 2.167479 3.662517
28.663950 4.934888 1.836581
28.009058 4.935410 0.174576
25.996956 4.939197 5.179424
12.024885 5.033021 0.086957
12.978205 3.121117 5.090908
13.977455 5.004706 5.107604
21.997860 4.971030 5.174269
28.721619 -0.069747 3.468730
29.324562 4.932336 3.500348
29.995131 4.928225 5.167564
31.312313 4.929924 3.513503
31.982374 -0.086462 5.163329
33.985558 -0.102450 5.166414
36.007687 4.870886 5.199905
32.646469 4.927418 1.865978
20.695295 1.640311 0.169869
20.718710 -0.032325 1.792325
24.017406 4.950351 0.181712
27.999905 4.936175 5.167382
40.004288 4.914708 0.197709
3.180692 1.443778 5.037651
0.000000 3.103853 1.750106
0.000000 5.000000 1.666667
0.000000 3.333333 0.000000
2.000328 5.005546 0.032495
0.000000 5.000000 0.000000
0.000000 5.000000 3.333333
0.000000 0.000000 3.333333
1.696778 2.458451 5.024643
3.037211 -0.010397 3.420558
1.997650 -0.011873 5.022766
0.000000 2.403264 3.370902
0.000000 1.666667 5.000000
0.000000 3.333333 5.000000
0.000000 0.000000 5.000000
27.990009 -0.059295 5.163527
29.988583 -0.072219 5.156994
35.985348 -0.085674 0.152313
39.979687 -0.155623 5.145066
8.018163 0.043196 0.039269
1.996397 4.988120 5.043806
3.166240 1.461398 0.040033
4.007237 0.007704 0.033559
21.995556 -0.051142 0.184630
0.000000 5.000000 5.000000
6.015772 0.024257 0.043898

CELLS 734 3670
4 0 1 2 3
4 0 4 2 5
4 0 3 2 6
4 4 6 0 2
4 4 6 7 0
4 8 9 10 11
4 12 13 14 15
4 16 17 14 18
4 19 20 18 21
4 20 22 21 23
4 24 25 26 23
4 25 27 26 23
4 26 28 29 30
4 28 29 31 32
4 33 34 32 31
4 31 33 35 32
4 31 33 36 35
4 33 37 36 35
4 38 39 40 31
4 41 42 43 38
4 44 42 45 38
4 44 42 38 43
4 46 38 42 41
4 46 47 40 48
4 49 50 51 52
4 53 54 51 55
4 56 54 55 57
4 56 58 59 57
4 60 59 61 62
4 63 61 64 65
4 66 67 68 69
4 67 70 71 72
4 73 74 75 76
4 74 77 75 76
4 77 78 79 80
4 79 81 75 80
4 77 78 80 82
4 77 83 76 84
4 83 85 76 84
4 85 86 74 84
4 74 86 87 84
4 88 89 86 90
4 91 89 88 90
4 86 88 90 92
4 90 86 92 74
4 86 89 74 90
4 93 94 95 74
4 70 74 72 93
4 70 73 71 72
4 74 96 73 72
4 66 97 93 72
4 96 97 72 93
4 96 98 97 93
4 85 96 74 99
4 96 98 93 99
4 98 89 100 93
4 101 102 100 103
4 104 105 101 106
4 107 58 57 60
4 58 107 57 56
4 53 108 109 55
4 56 110 109 54
4 53 111 109 108
4 112 53 109 52
4 111 112 113 53
4 112 111 113 114
4 115 116 114 117
4 40 28 115 117
4 45 117 118 28
4 119 28 25 44
4 120 44 121 122
4 123 121 124 125
4 125 123 126 124
4 127 128 21 124
4 16 129 128 21
4 16 18 14 130
4 16 17 18 19
4 131 17 132 18
4 16 19 18 21
4 133 16 19 134
4 135 134 133 136
4 135 137 136 138
4 137 134 139 140
4 141 142 143 144
4 145 146 147 7
4 142 148 147 146
4 7 146 147 149
4 10 7 9 146
4 145 150 7 151
4 152 151 150 153
4 16 128 154 124
4 124 21 121 133
4 25 28 30 44
4 28 38 45 40
4 45 47 40 42
4 155 45 156 47
4 157 156 47 155
4 155 45 40 117
4 45 42 158 159
4 44 42 43 158
4 119 45 158 159
4 120 44 158 119
4 25 127 21 121
4 25 27 160 30
4 127 25 160 30
4 25 127 121 30
4 44 25 121 30
4 28 30 44 29
4 119 28 44 45
4 119 28 118 25
4 28 24 26 161
4 26 32 29 28
4 28 31 29 38
4 46 38 41 39
4 46 38 39 40
4 28 117 40 45
4 118 28 117 161
4 162 24 118 161
4 118 119 163 164
4 136 119 164 163
4 25 133 21 163
4 128 16 21 124
4 165 166 153 154
4 166 167 168 169
4 167 168 169 170
4 171 168 172 166
4 124 173 126 154
4 123 121 133 124
4 120 125 122 121
4 122 158 44 43
4 47 46 40 42
4 52 50 174 48
4 175 50 174 54
4 176 175 177 178
4 179 60 180 181
4 64 69 63 65
4 68 72 67 66
4 70 73 182 71
4 74 79 183 75
4 184 78 185 79
4 79 184 186 187
4 186 184 188 187
4 184 189 190 191
4 184 78 79 186
4 78 189 184 191
4 189 184 190 188
4 184 78 191 192
4 184 78 192 185
4 192 78 80 185
4 193 80 194 185
4 195 81 196 194
4 81 79 196 194
4 197 187 196 198
4 187 79 185 196
4 79 184 187 185
4 197 199 187 198
4 199 197 187 200
4 199 200 187 186
4 78 201 79 186
4 189 201 87 78
4 202 201 79 74
4 201 74 92 87
4 201 202 92 74
4 201 202 79 186
4 202 203 74 79
4 202 198 203 79
4 204 202 199 203
4 202 203 205 74
4 202 204 205 203
4 182 203 74 205
4 74 203 183 79
4 79 203 183 198
4 79 81 198 183
4 81 79 198 196
4 187 79 196 198
4 202 198 79 186
4 202 204 94 205
4 94 95 205 206
4 207 208 209 210
4 208 207 211 210
4 104 103 211 65
4 104 60 212 213
4 214 215 216 217
4 218 219 220 221
4 222 174 220 221
4 46 39 222 174
4 52 46 40 48
4 40 49 52 48
4 53 49 52 113
4 40 49 155 113
4 155 45 47 40
4 157 47 223 155
4 49 223 224 48
4 52 50 51 54
4 175 54 57 178
4 218 175 54 57
4 225 219 54 57
4 218 175 57 177
4 57 217 219 218
4 219 225 226 57
4 225 227 226 57
4 59 110 57 227
4 59 60 61 228
4 61 60 213 228
4 64 61 213 228
4 63 61 213 64
4 61 104 211 65
4 180 60 104 62
4 58 229 62 180
4 58 60 180 62
4 60 61 104 62
4 60 226 230 212
4 226 60 213 212
4 60 104 212 230
4 179 60 230 104
4 104 211 231 62
4 180 229 62 232
4 180 232 62 231
4 179 60 104 180
4 233 181 105 179
4 181 105 179 230
4 105 214 106 230
4 105 214 230 177
4 215 214 218 217
4 215 217 218 219
4 218 215 219 221
4 218 175 174 54
4 39 52 220 174
4 39 46 52 174
4 115 52 112 35
4 28 115 117 161
4 162 118 116 161
4 24 162 118 163
4 20 19 234 163
4 25 133 163 119
4 120 119 158 235
4 236 119 235 159
4 235 119 158 159
4 119 235 133 136
4 138 235 236 164
4 45 47 42 159
4 46 38 40 42
4 49 50 52 48
4 237 175 176 178
4 181 233 177 176
4 180 179 231 104
4 207 103 65 211
4 207 103 68 65
4 65 66 103 68
4 103 66 97 93
4 66 103 97 63
4 213 104 63 238
4 238 97 103 63
4 104 102 103 238
4 104 106 212 230
4 214 212 106 230
4 214 212 216 106
4 214 212 217 216
4 214 212 230 217
4 226 217 230 212
4 226 60 230 57
4 181 60 57 230
4 179 105 104 230
4 179 105 101 104
4 104 239 103 101
4 239 101 240 100
4 91 241 240 100
4 241 239 240 100
4 239 241 103 100
4 103 210 93 241
4 103 207 93 210
4 210 103 231 239
4 103 239 104 231
4 103 104 63 65
4 65 66 63 103
4 65 66 68 69
4 68 72 66 93
4 96 98 242 97
4 85 96 99 243
4 85 86 99 74
4 86 89 99 74
4 88 86 244 92
4 74 86 92 87
4 201 244 87 92
4 244 86 87 92
4 90 74 92 94
4 94 95 206 245
4 95 209 206 245
4 245 207 95 209
4 208 232 231 211
4 180 104 231 62
4 181 60 107 57
4 54 175 51 178
4 50 52 174 54
4 246 36 52 247
4 246 36 37 35
4 52 31 36 35
4 31 39 52 36
4 39 46 222 41
4 39 222 174 220
4 174 218 220 221
4 218 219 54 220
4 225 219 220 54
4 56 110 54 57
4 110 56 59 57
4 60 59 226 228
4 60 226 213 228
4 57 217 230 226
4 214 217 230 218
4 218 57 230 177
4 181 105 230 177
4 179 60 181 230
4 58 107 180 60
4 229 107 58 248
4 229 107 180 58
4 60 58 59 62
4 58 107 56 248
4 108 56 109 55
4 108 56 55 248
4 107 56 55 57
4 107 181 57 178
4 57 181 177 178
4 181 176 177 178
4 233 181 177 105
4 249 239 101 240
4 91 89 241 100
4 89 91 241 90
4 210 245 93 241
4 245 241 90 93
4 93 94 90 245
4 74 202 92 94
4 205 204 94 206
4 202 198 199 203
4 202 198 186 199
4 199 197 200 250
4 199 186 187 198
4 200 186 188 187
4 184 189 186 188
4 201 189 87 244
4 189 201 78 186
4 201 78 79 87
4 189 78 184 186
4 186 79 187 198
4 74 201 79 87
4 74 79 84 87
4 79 78 84 87
4 77 78 84 79
4 74 77 84 79
4 74 85 84 76
4 83 243 76 85
4 85 96 243 76
4 73 96 74 76
4 96 93 74 99
4 89 93 99 74
4 93 94 74 90
4 93 94 245 95
4 207 95 68 93
4 95 70 68 93
4 95 70 74 205
4 74 70 182 205
4 94 95 74 205
4 241 89 90 93
4 104 179 231 239
4 181 60 180 107
4 107 57 55 178
4 57 54 55 178
4 53 49 51 52
4 40 49 113 52
4 155 47 223 48
4 45 47 159 156
4 119 156 45 159
4 120 44 119 121
4 16 173 124 154
4 166 167 169 145
4 145 7 147 251
4 9 7 252 149
4 253 254 252 255
4 256 253 255 254
4 6 9 252 255
4 253 257 149 252
4 7 258 259 260
4 260 261 251 170
4 169 260 251 170
4 169 251 167 170
4 166 167 145 171
4 16 22 18 130
4 25 24 20 23
4 24 25 118 28
4 119 156 118 45
4 119 28 45 118
4 119 45 44 158
4 44 38 28 29
4 25 28 26 30
4 25 24 26 28
4 24 20 234 163
4 162 24 234 163
4 163 119 118 25
4 235 135 133 136
4 135 134 140 133
4 145 141 153 144
4 145 260 169 151
4 0 258 4 5
4 259 258 262 263
4 264 259 262 263
4 258 7 262 0
4 260 258 259 261
4 258 261 263 259
4 261 258 263 265
4 261 260 251 259
4 167 251 169 145
4 145 260 251 169
4 166 167 171 168
4 16 171 153 140
4 137 135 136 134
4 138 135 235 136
4 235 138 136 164
4 236 119 156 164
4 157 156 159 47
4 155 47 48 40
4 40 49 48 155
4 46 52 174 48
4 247 225 220 54
4 110 225 57 227
4 60 59 57 226
4 104 61 211 62
4 232 211 62 231
4 103 104 211 231
4 239 210 103 241
4 241 93 103 100
4 68 72 93 70
4 103 207 68 93
4 207 103 211 210
4 210 208 231 211
4 103 210 231 211
4 245 207 210 93
4 245 207 209 210
4 245 207 93 95
4 70 95 74 93
4 70 73 74 182
4 182 203 183 74
4 202 74 205 94
4 93 89 90 74
4 89 241 100 93
4 93 98 103 100
4 101 104 102 103
4 104 101 102 106
4 106 238 104 212
4 266 216 212 106
4 106 238 212 266
4 106 238 102 104
4 267 266 238 102
4 97 102 267 238
4 106 238 266 102
4 97 102 238 103
4 97 102 103 98
4 97 102 98 267
4 97 98 242 267
4 96 98 99 242
4 89 98 99 93
4 239 101 100 103
4 104 179 239 101
4 179 249 239 101
4 105 179 101 249
4 233 105 249 179
4 177 181 57 230
4 175 57 177 178
4 175 237 51 178
4 55 54 51 178
4 112 111 109 53
4 112 53 52 113
4 117 115 113 114
4 116 118 117 161
4 115 116 117 161
4 28 115 161 32
4 29 32 26 34
4 26 30 29 27
4 34 26 29 27
4 29 34 31 32
4 31 115 32 35
4 31 115 28 32
4 246 112 52 35
4 246 247 52 54
4 247 110 225 54
4 59 227 57 226
4 213 104 238 212
4 104 103 63 238
4 97 98 103 93
4 70 73 72 74
4 71 182 268 73
4 182 75 268 73
4 182 75 183 268
4 183 81 268 75
4 182 75 74 183
4 79 81 183 75
4 79 81 80 194
4 78 192 80 82
4 192 193 80 82
4 269 193 192 82
4 193 192 80 185
4 80 79 194 185
4 77 74 75 79
4 85 96 76 74
4 96 243 242 99
4 98 102 103 100
4 104 105 106 230
4 214 218 230 177
4 50 175 51 54
4 49 155 223 48
4 157 156 236 159
4 236 119 159 156
4 235 119 164 136
4 236 119 164 235
4 133 235 120 123
4 120 235 133 119
4 135 123 235 133
4 124 173 123 126
4 173 172 126 154
4 166 171 154 172
4 172 171 154 173
4 171 16 154 173
4 171 166 154 153
4 16 171 154 153
4 124 173 16 133
4 124 173 133 123
4 25 133 119 121
4 19 16 133 21
4 163 19 133 21
4 134 19 133 136
4 133 119 136 163
4 133 19 163 136
4 132 20 18 19
4 20 132 234 19
4 20 19 163 21
4 22 20 21 18
4 16 22 21 18
4 128 129 127 21
4 160 129 21 127
4 160 21 25 127
4 25 20 21 23
4 25 27 23 160
4 25 27 30 26
4 23 22 21 160
4 16 129 21 22
4 128 130 165 270
4 128 130 270 129
4 128 130 16 165
4 16 165 153 154
4 17 16 14 153
4 131 17 18 14
4 17 141 153 15
4 12 10 15 153
4 15 17 14 153
4 153 16 14 130
4 16 129 22 130
4 128 130 129 16
4 16 128 165 154
4 151 166 153 165
4 260 145 7 151
4 9 6 252 7
4 7 262 252 149
4 260 259 7 251
4 7 259 147 251
4 264 259 271 149
4 259 7 147 149
4 146 148 147 149
4 271 259 147 149
4 148 271 147 149
4 146 142 143 141
4 144 141 140 139
4 141 134 140 139
4 143 141 144 139
4 142 145 141 146
4 145 142 141 144
4 148 142 143 146
4 145 7 10 146
4 145 150 151 153
4 151 272 150 7
4 151 272 273 150
4 151 272 4 273
4 4 272 2 273
4 151 272 7 4
4 4 260 7 151
4 166 145 151 153
4 166 145 169 151
4 171 166 153 145
4 133 16 140 173
4 124 16 21 133
4 25 21 160 23
4 21 129 160 22
4 121 21 124 127
4 121 120 133 119
4 123 121 125 120
4 123 121 120 133
4 25 133 121 21
4 25 20 163 21
4 118 24 28 161
4 26 28 161 32
4 40 115 28 31
4 115 52 113 112
4 246 112 109 52
4 246 52 109 54
4 56 54 109 55
4 56 107 55 248
4 58 60 59 57
4 63 61 65 104
4 68 72 70 67
4 182 75 73 74
4 77 79 75 80
4 196 79 185 194
4 79 78 185 80
4 77 78 82 84
4 83 77 82 84
4 77 74 84 76
4 96 74 93 72
4 103 66 93 68
4 65 66 69 63
4 63 61 104 213
4 61 60 104 213
4 59 227 226 228
4 274 110 227 225
4 246 36 247 37
4 246 36 35 52
4 52 115 40 31
4 28 31 38 40
4 44 42 158 45
4 120 44 122 158
4 135 133 140 173
4 171 16 173 140
4 171 144 153 140
4 141 144 140 153
4 10 141 15 153
4 10 12 15 13
4 10 8 12 13
4 8 10 12 11
4 8 9 11 255
4 9 253 149 252
4 257 262 149 252
4 262 259 149 7
4 258 7 4 260
4 259 258 7 262
4 262 0 7 252
4 0 6 7 252
4 254 6 252 255
4 0 3 6 252
4 6 3 254 252
4 272 6 11 7
4 4 6 272 7
4 4 6 2 272
4 9 6 11 255
4 9 253 252 255
4 262 264 257 149
4 257 264 275 271
4 259 264 262 149
4 257 264 271 149
4 9 146 7 149
4 10 7 11 9
4 7 12 10 11
4 145 150 153 12
4 12 145 10 153
4 145 146 10 141
4 145 142 147 146
4 171 145 153 144
4 171 142 145 144
4 142 171 145 167
4 142 145 147 167
4 167 145 147 251
4 145 260 7 251
4 145 150 12 7
4 12 145 7 10
4 12 152 153 14
4 152 153 14 130
4 152 151 153 165
4 165 152 276 270
4 152 151 165 276
4 165 152 270 130
4 152 151 276 150
4 276 150 151 273
4 272 7 11 150
4 7 12 11 150
4 153 150 152 12
4 165 16 153 130
4 165 152 130 153
4 15 12 153 14
4 13 131 14 15
4 17 131 15 14
4 17 132 18 19
4 25 24 163 20
4 25 24 118 163
4 119 156 164 118
4 118 117 45 156
4 155 45 117 156
4 113 40 117 155
4 50 49 224 48
4 49 50 224 51
4 50 237 224 51
4 237 50 175 51
4 52 54 220 174
4 52 247 220 54
4 39 247 220 52
4 39 247 52 36
4 115 52 35 31
4 40 115 52 113
4 40 115 113 117
4 115 112 113 114
4 53 52 51 54
4 54 53 109 55
4 52 53 109 54
4 110 246 109 54
4 247 110 54 246
4 247 110 274 225
4 246 274 37 247
4 247 110 246 274
4 110 225 54 57
4 57 217 226 219
4 57 217 218 230
4 219 218 54 57
4 218 54 174 220
4 46 39 52 40
4 39 31 52 40
4 38 42 45 40
4 28 38 44 45
4 121 25 44 119
4 123 135 173 133
4 134 153 140 16
4 134 16 140 133
4 137 135 134 140
4 134 153 141 140
4 134 153 16 17
4 16 17 19 134
4 134 153 17 141
4 153 145 10 141
4 6 9 11 7
4 258 7 0 4
4 1 0 2 5

CELL_TYPES 734
10
10
10
10
10
10
10
10
10
10
10
10
10
10
10
10
10
10
10
10
10
10
10
10
10
10
10
10
10
10
10
10
10
10
10
10
10
10
10
10
10
10
10
10
10
10
10
10
10
10
10
10
10
10
10
10
10
10
10
10
10
10
10
10
10
10
10
10
10
10
10
10
10
10
10
10
10
10
10
10
10
10
10
10
10
10
10
10
10
10
10
10
10
10
10
10
10
10
10
10
10
10
10
10
10
10
10
10
10
10
10
10
10
10
10
10
10
10
10
10
10
10
10
10
10
10
10
10
10
10
10
10
10
10
10
10
10
10
10
10
10
10
10
10
10
10
10
10
10
10
10
10
10
10
10
10
10
10
10
10
10
10
10
10
10
10
10
10
10
10
10
10
10
10
10
10
10
10
10
10
10
10
10
10
10
10
10
10
10
10
10
10
10
10
10
10
10
10
10
10
10
10
10
10
10
10
10
10
10
10
10
10
10
10
10
10
10
10
10
10
10
10
10
10
10
10
10
10
10
10
10
10
10
10
10
10
10
10
10
10
10
10
10
10
10
10
10
10
10
10
10
10
10
10
10
10
10
10
10
10
10
10
10
10
10
10
10
10
10
10
10
10
10
10
10
10
10
10
10
10
10
10
10
10
10
10
10
10
10
10
10
10
10
10
10
10
10
10
10
10
10
10
10
10
10
10
10
10
10
10
10
10
10
10
10
10
10
10
10
10
10
10
10
10
10
10
10
10
10
10
10
10
10
10
10
10
10
10
10
10
10
10
10
10
10
10
10
10
10
10
10
10
10
10
10
10
10
10
10
10
10
10
10
10
10
10
10
10
10
10
10
10
10
10
10
10
10
10
10
10
10
10
10
10
10
10
10
10
10
10
10
10
10
10
10
10
10
10
10
10
10
10
10
10
10
10
10
10
10
10
10
10
10
10
10
10
10
10
10
10
10
10
10
10
10
10
10
10
10
10
10
10
10
10
10
10
10
10
10
10
10
10
10
10
10
10
10
10
10
10
10
10
10
10
10
10
10
10
10
10
10
10
10
10
10
10
10
10
10
10
10
10
10
10
10
10
10
10
10
10
10
10
10
10
10
10
10
10
10
10
10
10
10
10
10
10
10
10
10
10
10
10
10
10
10
10
10
10
10
10
10
10
10
10
10
10
10
10
10
10
10
10
10
10
10
10
10
10
10
10
10
10
10
10
10
10
10
10
10
10
10
10
10
10
10
10
10
10
10
10
10
10
10
10
10
10
10
10
10
10
10
10
10
10
10
10
10
10
10
10
10
10
10
10
10
10
10
10
10
10
10
10
10
10
10
10
10
10
10
10
10
10
10
10
10
10
10
10
10
10
10
10
10
10
10
10
10
10
10
10
10
10
10
10
10
10
10
10
10
10
10
10
10
10
10
10
10
10
10
10
10
10
10
10
10
10
10
10
10
10
10
10
10
10
10
10
10
10
10
10
10
10
10
10
10
10
10
10
10
10
10
10
10
10
10
10
10
10
10
10
10
10
10
10
10
10
10
10
10
10
10
10
10
10
10
10
10
10
10
10
10
10
10
10
10
10
10
10
10
10
10
10
10
10
10
10
10
10
10
10
10
10
10
10
10
10
10
10
10
10
10
10
10
10
10
10
10
10
10
10
10
10
10
10

CELL_DATA 734
SCALARS potentialEnergy FLOAT 1
LOOKUP_TABLE default
128.230812
89.711517
257.450760
162.680695
248.387421
107.806198
62.831684
126.420601
114.157692
54.126354
51.136070
40.593761
32.315329
94.770454
110.254913
170.007233
48.361927
107.828217
45.284824
57.155155
141.019562
38.964413
46.588818
46.002537
91.267113
72.051517
42.018387
47.581619
65.896225
90.640404
110.947174
52.758736
117.545662
94.323372
27.085758
115.369347
98.131569
23.997149
64.034512
96.896248
146.482925
91.081764
142.941132
85.552597
121.692314
120.854553
121.600990
162.566971
31.191164
94.749741
105.025291
97.432037
103.301987
154.158325
113.539223
179.526733
38.747625
111.241280
55.723328
59.282143
65.249603
72.285290
63.374649
170.112701
79.608093
51.889256
112.730278
31.185314
56.584927
123.211365
46.352432
37.090919
54.628399
34.794828
35.110966
46.218487
74.352730
139.299606
193.202957
56.768879
40.972939
62.695099
39.225880
123.061615
26.255175
163.039978
149.575363
219.833511
57.601303
143.298782
186.896622
111.586998
63.602142
51.318970
33.344376
48.461845
53.790798
90.801918
51.095921
57.014355
50.947895
43.103199
135.175842
36.839664
52.624832
57.124084
72.558861
45.100403
58.434361
113.077614
108.074066
49.566170
61.582981
84.367432
58.934109
48.299320
77.492111
54.630829
67.299583
74.236481
118.291100
104.650009
189.816589
44.238838
32.879110
109.530945
46.516346
51.190853
55.811241
79.347878
39.021650
77.276314
94.396461
96.662415
45.834728
86.390556
71.497482
26.654943
304.082001
68.277924
103.783882
16.520561
52.943974
74.826332
77.531357
198.293045
59.879356
44.799213
65.202110
22.936874
48.021034
159.496124
55.188431
78.361771
45.530125
47.187084
35.591921
44.287579
65.089851
39.394249
194.660904
33.324718
60.580082
207.022827
285.322388
176.845840
277.872223
214.599579
135.511597
124.927254
242.456451
146.461899
100.595329
35.346184
94.582489
297.967102
75.946983
93.046936
159.008957
26.994314
51.765068
49.000877
80.915924
250.473724
70.695679
93.185654
25.931333
430.626770
93.146347
41.921144
37.098719
59.364876
94.195557
89.914215
98.413429
26.613264
35.394009
70.085270
107.994919
29.023859
39.361906
80.977470
78.352821
77.185547
78.651360
84.543671
116.064079
126.169548
33.097492
34.093876
90.149712
77.143921
35.337978
156.116776
68.621487
158.093338
43.610806
52.189342
46.565876
67.369507
100.501801
65.209110
26.413401
102.823425
86.898842
102.706421
84.503754
122.056740
64.466583
96.961899
72.237614
46.854614
38.283138
41.636641
86.082962
33.661842
101.344254
58.684109
41.654762
49.518227
46.586624
78.980705
166.326614
38.433010
67.695370
100.839912
79.014748
69.875599
114.500122
110.639046
47.907459
51.486031
89.313202
28.010822
151.882690
36.280910
87.196770
55.311954
169.744644
122.098625
183.386215
54.475910
96.444237
36.868320
22.464906
33.754446
93.441376
38.301043
102.842049
30.151237
50.266029
113.175690
49.563393
78.182343
54.570728
30.243820
83.603569
49.808704
87.719307
178.202972
183.867874
144.781265
75.381866
29.619259
75.467796
79.990395
37.836216
169.522064
57.210323
169.283005
148.592865
26.681490
27.493855
176.602600
194.511429
145.045593
85.763947
103.458923
111.750328
63.968079
69.661282
89.704582
53.124470
42.458725
41.609251
81.738724
112.961861
135.995941
109.228065
89.468201
151.600052
72.395798
69.117622
45.383015
83.121460
26.681334
60.295937
90.386726
87.875359
61.015041
35.019629
201.132950
27.280697
52.914440
72.133575
74.496216
81.235718
87.472725
93.656189
49.007458
70.325886
97.682999
182.113571
113.991478
81.274017
82.382271
31.074808
62.432732
51.335999
45.382401
53.148895
47.796764
126.294853
194.750977
70.061180
20.600206
45.837757
98.440689
153.980377
138.037033
139.980530
129.455200
185.978027
211.892365
165.239014
64.811695
69.392818
76.129379
28.730482
74.140633
28.577675
138.150406
54.918251
44.352364
206.379089
89.574387
93.963699
90.676331
43.422165
49.253853
70.693096
43.176994
65.395592
38.217230
26.105473
712.003357
183.190475
155.813782
290.490479
305.323792
326.465515
231.873871
70.761990
27.239672
80.416451
32.118292
76.689651
133.787071
223.670578
115.580803
90.076317
82.017891
69.318733
93.086197
39.485708
55.404270
108.485626
41.019896
63.915806
225.158600
100.582077
99.601410
215.740189
151.679642
237.608337
191.612274
845.464661
129.383247
92.335182
22.802217
45.374260
32.893291
240.602478
52.252762
38.859299
29.472734
83.547867
44.164204
58.607445
119.555275
55.539600
74.212540
54.814548
28.698723
130.010643
62.247734
67.872917
40.227812
34.753681
68.636547
54.321030
75.599083
17.990680
166.019333
140.829025
212.578568
70.475742
62.168499
79.711761
123.190125
57.491722
132.489639
79.495110
63.953880
40.083904
30.591486
157.946716
80.668610
75.979698
38.103628
59.835220
40.099424
42.631336
30.083729
47.540424
22.361744
32.364870
56.329754
128.531258
27.512848
47.038948
164.834152
98.910080
65.974159
93.121780
96.195625
51.817715
28.632652
183.207092
110.389435
82.829063
85.135506
32.121153
49.441147
41.835064
36.302471
53.331337
39.534540
81.847572
38.879408
169.437653
88.749969
53.117439
50.603958
67.029644
63.455536
52.423138
57.592228
79.421364
96.940086
68.627178
155.176437
151.175888
149.548538
98.394936
171.834549
67.899097
125.154892
32.150984
51.345539
153.143631
95.841675
39.030600
34.455549
46.454350
111.874527
71.076607
135.408928
69.184391
98.821724
27.048309
24.303496
62.744408
28.032528
70.255398
40.595161
46.489880
52.228725
29.771627
39.802633
69.273777
71.271801
51.903389
58.189194
129.027863
87.446892
108.194077
49.977009
75.102188
69.746960
61.584900
78.995323
153.742920
56.101753
97.498611
21.420069
27.291164
34.154505
108.351845
38.111511
94.759323
36.096657
20.691319
43.568184
37.801563
34.566385
55.775219
61.358910
117.488739
92.152084
71.664139
70.892498
22.338110
29.054611
32.630840
99.879715
88.139496
85.073090
346.167603
390.912079
266.029480
148.820419
259.155380
460.395935
177.276321
126.052261
231.965469
66.906273
48.762867
39.700209
32.178885
114.550514
83.610924
69.338673
59.685822
91.962181
85.533508
24.260789
76.574516
140.503189
128.287743
108.620033
130.540894
41.606144
79.861229
103.538742
76.864365
97.167458
44.075974
51.373405
30.647205
30.990831
80.884575
49.391411
137.316193
207.728134
57.819332
74.314568
154.615173
92.169762
28.787210
95.023994
52.771152
31.278511
165.436859
64.618446
243.317749
106.717293
76.744659
38.315197
68.165527
82.158073
82.725067
214.089279
102.170601
47.782902
154.348099
113.051414
68.432713
28.775808
85.010414
166.866577
133.689865
28.279253
89.830772
35.556030
23.548695
157.730347
92.279854
69.455387
48.160751
45.056164
48.716698
31.367237
195.091858
549.736572
400.849670
323.243835
332.336243
332.848907
175.323990
229.030411
197.259491
189.209213
182.740875
154.520538
147.541260
100.552582
188.897903
243.796310
408.588776
346.409821
323.691254
377.539368
291.660645
90.617111
48.722343
202.567413
101.883430
59.446194
104.500259
138.206909
88.508171
203.085983
30.279415
30.218798
65.542080
56.587353
69.442406
127.842316
40.493137
134.496147
77.451935
90.336540
40.414717
90.053040
97.370857
55.246098
65.718864
119.255287
36.255829
55.147926
158.660492
105.002197
85.530518
43.469521
79.911568
111.620705
83.283577
82.141106
150.604034
96.786354
84.924622
77.388985
35.983028
69.668274
81.347458
57.701710
117.753487
152.489807
124.790405
62.215931
65.127972
46.679176
106.941162
57.141300
55.927326
64.052544
65.850948
51.462669
158.077469
55.328144
36.056356
20.325505
215.624756
59.501762
225.953522
46.718399
55.328087
43.009842
66.853634
81.882301
38.636816
71.251389
163.089981
38.860374
74.762177
34.549654
53.578030
66.167416
48.630943
209.667023
234.758072
102.884834

