# vtk DataFile Version 3.1
Tetrahedral Mesh Visualization
ASCII
DATASET UNSTRUCTURED_GRID

POINTS 277 FLOAT
0.000000 1.378113 1.754166
0.000000 0.000000 0.000000
1.999840 0.007299 0.005595
0.000000 1.666667 0.000000
2.424179 0.003719 1.738229
0.000000 0.000000 1.666667
1.693780 2.472950 -0.000339
3.000259 2.455325 2.325387
4.001082 5.001338 -0.001851
3.074790 4.999028 1.639569
5.210353 4.996386 1.605556
3.490350 3.178073 -0.000875
5.408471 3.302077 0.005102
6.005211 4.997458 -0.001409
7.365911 3.326892 0.017203
6.971140 5.002666 1.329102
9.255613 2.179199 2.044321
8.697403 5.002643 1.624179
9.340129 3.331311 0.006627
10.659391 4.996231 1.657583
11.322766 3.319275 -0.012324
11.103672 1.853986 1.555943
10.664794 1.650158 0.001394
12.651038 1.641346 -0.012991
13.318382 3.308141 -0.031847
12.960068 1.859208 1.473686
14.654757 1.641600 -0.019669
13.989742 -0.028032 -0.004511
15.461258 2.131610 1.660789
15.324109 -0.014596 1.649920
13.325205 -0.013816 1.661015
17.283804 -0.018768 1.601207
16.655819 1.637025 -0.019914
17.983702 -0.029107 -0.014919
15.986099 -0.025196 -0.012296
18.651133 1.641573 -0.027654
18.991047 -0.017646 1.304258
19.981714 -0.026501 -0.018329
16.729641 0.000122 3.289883
19.004667 -0.003502 3.098712
17.709391 2.673753 2.920242
18.005499 0.012022 4.977684
16.687157 1.667788 4.977149
15.997539 0.007901 4.989705
14.675029 0.003924 3.318624
15.776172 2.884312 3.319875
18.750984 1.709111 4.974225
17.333836 3.332947 4.970575
19.311029 3.399816 4.957916
19.343349 4.992922 3.285929
21.029034 3.687357 4.944352
21.348974 4.985858 3.267110
19.630888 2.479920 2.324246
20.662777 4.978173 1.608814
21.922033 2.482564 2.430896
22.665144 4.973248 1.607973
23.272444 3.361267 -0.054029
23.976196 2.415790 2.245717
24.971678 3.642727 -0.066798
24.966457 1.840773 -0.055676
25.974234 2.468098 1.659160
27.209888 1.644087 -0.079905
26.669193 3.349108 -0.092070
29.243452 -0.036644 1.508562
27.944065 -0.053719 -0.076881
29.256033 1.619659 -0.122581
30.949884 -0.031290 1.177351
31.926214 -0.034896 -0.185724
31.245049 1.624265 -0.175035
29.942911 -0.053179 -0.118094
33.211384 1.616994 -0.238795
33.929508 -0.035687 -0.245972
32.647255 -0.017596 1.403355
34.562572 -0.015035 1.424016
34.984219 2.399366 2.248135
36.472713 -0.016396 1.508495
35.140034 -0.004165 3.111743
36.827324 -0.007558 3.229659
38.342323 2.510072 4.643513
37.675694 2.135817 1.842976
38.277676 -0.033066 2.195432
37.927441 -0.058585 -0.337279
38.021812 -0.005960 4.669342
36.034824 0.005857 4.706783
36.601559 1.755795 4.681319
34.975643 1.350445 4.716086
34.897480 3.150457 4.708333
36.809090 3.486796 4.662873
34.059265 5.021237 4.706543
32.745300 3.315710 4.758775
33.292950 5.002422 3.076572
32.058662 5.009605 4.766928
35.182224 4.994915 3.072341
32.194550 2.591547 2.212129
34.576855 4.984586 1.389402
32.579281 3.289928 -0.234859
33.209888 -0.005208 3.085386
30.989859 -0.011699 2.969691
31.365675 1.669554 4.826324
33.292736 1.617584 4.755544
30.720049 3.337725 4.826478
28.712082 3.331571 4.872607
29.376087 1.666306 4.877424
30.013884 2.477263 2.333140
27.958004 2.464295 2.372238
26.708000 3.326567 4.908913
27.373499 1.660074 4.907750
24.660440 4.971344 1.599879
21.992334 4.969059 -0.057334
21.319527 3.313030 -0.043345
22.716631 1.666149 -0.038823
19.989050 4.977943 -0.049242
19.320887 3.309109 -0.039022
18.660828 4.979958 1.625701
17.989531 4.971912 -0.036035
17.321665 3.302902 -0.026795
15.998010 4.969988 -0.040892
16.660799 4.982814 1.631008
14.653673 4.983153 1.618256
13.691980 2.957925 3.239122
13.000281 1.325176 4.996411
12.665193 -0.001629 3.337400
14.006250 0.008998 5.000590
11.283018 1.618276 5.008947
10.661473 -0.002249 3.356379
12.007028 0.004765 5.015308
10.004416 0.010531 5.028800
11.321348 -0.013005 1.682763
9.309411 -0.006071 1.699715
9.994458 -0.018597 0.018577
8.689235 1.657244 0.017568
8.003525 5.002203 0.013173
9.999921 5.005222 0.009059
11.227259 2.637322 3.284916
9.257875 4.999888 3.314626
10.751711 3.309304 5.000636
11.316067 4.994995 3.319056
10.015141 4.996428 5.003946
12.014791 4.999927 4.985296
7.998658 5.010572 5.002724
8.744678 3.398422 5.018303
6.964225 5.003683 3.115849
5.357456 3.376761 5.006559
5.996769 5.011413 4.993623
7.033096 3.690012 5.009593
5.143049 2.375345 3.153162
4.619360 5.002651 3.283783
3.486583 3.189739 4.998746
3.995210 4.999768 4.991576
2.368899 5.001176 3.273619
4.848196 1.603880 0.023801
4.911817 -0.003433 1.904833
6.729625 1.646937 0.024583
7.015190 2.564764 2.210120
8.657776 0.003568 3.366586
17.337347 4.981870 3.301830
15.324377 4.991449 3.288382
16.013859 4.998020 4.954414
14.713974 1.619629 4.977856
15.278127 3.307922 4.967936
11.985373 -0.027628 0.006424
15.323307 3.308901 -0.033973
13.989856 4.968832 -0.047574
12.653271 4.986255 1.633746
13.325415 4.997567 3.297493
7.247953 0.000240 1.723912
6.673265 0.005772 3.409461
4.914497 1.653463 5.013078
6.004745 0.010816 5.026407
4.912513 0.005373 3.685525
4.000405 0.000532 5.013802
7.055128 1.898038 5.018012
8.007430 0.009117 5.028438
9.280998 1.701883 5.016326
21.022362 1.900680 4.963595
22.739569 3.393208 4.951391
24.039152 4.994909 4.928802
24.702127 3.335568 4.934813
23.348000 4.978229 3.270129
27.347769 4.979303 3.223483
26.654238 4.971204 1.568951
25.350542 4.972939 3.257682
35.094379 1.573389 -0.288785
36.777065 1.410266 -0.329026
40.025642 3.194458 3.234175
39.989479 1.567953 2.220144
38.317371 4.958239 2.144779
39.993679 3.180703 1.511289
40.033295 4.939655 2.924481
38.065773 4.992699 4.612295
40.074081 4.959406 4.588743
40.054455 3.300950 4.610678
40.036552 1.630619 4.625374
39.987766 -0.050848 2.974146
39.953239 -0.072601 1.303385
39.929424 -0.093162 -0.365219
39.945995 1.572907 -0.371780
39.970509 3.240336 -0.377978
38.258663 2.397334 -0.356612
37.979637 4.927632 -0.373034
40.010426 4.925599 1.267065
36.867832 4.987334 3.186066
36.502327 4.971666 1.467521
36.460587 3.130792 -0.332097
35.963764 4.946298 -0.342786
34.541195 3.271396 -0.285550
33.948502 4.967121 -0.284900
30.594387 3.292498 -0.176230
29.946184 4.955469 -0.180336
31.941288 4.963161 -0.224193
30.629229 4.973549 1.477159
28.613647 3.290767 -0.129090
26.737341 -0.030303 3.329771
27.245600 -0.047146 1.629392
25.356844 1.672153 4.939435
24.027456 0.008211 4.979313
26.038315 0.001387 4.956366
25.012732 -0.014371 3.649617
23.292353 1.703895 4.962241
23.285217 -0.015240 3.363839
21.272806 -0.010685 3.292348
22.022505 0.005407 4.976726
20.016640 0.015502 4.982483
18.024868 4.991843 4.967553
20.034756 5.006998 4.945023
22.723410 -0.029568 1.666541
24.989367 -0.037811 1.861308
23.968428 -0.050591 -0.026518
25.952709 -0.062612 -0.038453
25.968674 4.963869 -0.089998
25.722212 2.209024 3.420826
28.647181 4.964038 1.529137
27.961929 4.953876 -0.127728
26.047710 4.990469 4.910729
11.987997 4.988419 -0.021877
13.012528 3.115242 4.980616
14.009790 4.996214 4.967423
22.032598 5.006041 4.931219
28.745270 -0.019653 3.214721
29.343227 4.986583 3.184574
30.051414 5.002501 4.834596
31.327755 4.995235 3.124857
32.060585 0.012056 4.818777
34.046268 0.009867 4.750077
36.061573 5.007334 4.662252
32.615318 4.979090 1.421942
20.661428 1.647823 -0.031571
20.712023 -0.016974 1.596521
23.987436 4.974275 -0.062810
28.048340 4.991017 4.881967
39.985340 4.906261 -0.397342
3.182721 1.463894 5.002778
0.000000 3.103853 1.750106
0.000000 5.000000 1.666667
0.000000 3.333333 0.000000
1.999475 5.004167 -0.005563
0.000000 5.000000 0.000000
0.000000 5.000000 3.333333
0.000000 0.000000 3.333333
1.697651 2.470371 5.000059
3.035802 -0.001254 3.397552
1.998206 -0.000462 5.005264
0.000000 2.403264 3.370902
0.000000 1.666667 5.000000
0.000000 3.333333 5.000000
0.000000 0.000000 5.000000
28.048452 -0.001548 4.917154
30.054836 0.006035 4.880810
35.925045 -0.035519 -0.297472
40.017250 -0.033252 4.642295
8.007517 -0.007350 0.027545
1.997801 5.001095 4.994151
3.167624 1.454862 0.008990
4.011870 0.004935 0.014929
21.972412 -0.024036 -0.022997
0.000000 5.000000 5.000000
6.008996 -0.010086 0.034236

CELLS 734 3670
4 0 1 2 3
4 0 4 2 5
4 0 3 2 6
4 4 6 0 2
4 4 6 7 0
4 8 9 10 11
4 12 13 14 15
4 16 17 14 18
4 19 20 18 21
4 20 22 21 23
4 24 25 26 23
4 25 27 26 23
4 26 28 29 30
4 28 29 31 32
4 33 34 32 31
4 31 33 35 32
4 31 33 36 35
4 33 37 36 35
4 38 39 40 31
4 41 42 43 38
4 44 42 45 38
4 44 42 38 43
4 46 38 42 41
4 46 47 40 48
4 49 50 51 52
4 53 54 51 55
4 56 54 55 57
4 56 58 59 57
4 60 59 61 62
4 63 61 64 65
4 66 67 68 69
4 67 70 71 72
4 73 74 75 76
4 74 77 75 76
4 77 78 79 80
4 79 81 75 80
4 77 78 80 82
4 77 83 76 84
4 83 85 76 84
4 85 86 74 84
4 74 86 87 84
4 88 89 86 90
4 91 89 88 90
4 86 88 90 92
4 90 86 92 74
4 86 89 74 90
4 93 94 95 74
4 70 74 72 93
4 70 73 71 72
4 74 96 73 72
4 66 97 93 72
4 96 97 72 93
4 96 98 97 93
4 85 96 74 99
4 96 98 93 99
4 98 89 100 93
4 101 102 100 103
4 104 105 101 106
4 107 58 57 60
4 58 107 57 56
4 53 108 109 55
4 56 110 109 54
4 53 111 109 108
4 112 53 109 52
4 111 112 113 53
4 112 111 113 114
4 115 116 114 117
4 40 28 115 117
4 45 117 118 28
4 119 28 25 44
4 120 44 121 122
4 123 121 124 125
4 125 123 126 124
4 127 128 21 124
4 16 129 128 21
4 16 18 14 130
4 16 17 18 19
4 131 17 132 18
4 16 19 18 21
4 133 16 19 134
4 135 134 133 136
4 135 137 136 138
4 137 134 139 140
4 141 142 143 144
4 145 146 147 7
4 142 148 147 146
4 7 146 147 149
4 10 7 9 146
4 145 150 7 151
4 152 151 150 153
4 16 128 154 124
4 124 21 121 133
4 25 28 30 44
4 28 38 45 40
4 45 47 40 42
4 155 45 156 47
4 157 156 47 155
4 155 45 40 117
4 45 42 158 159
4 44 42 43 158
4 119 45 158 159
4 120 44 158 119
4 25 127 21 121
4 25 27 160 30
4 127 25 160 30
4 25 127 121 30
4 44 25 121 30
4 28 30 44 29
4 119 28 44 45
4 119 28 118 25
4 28 24 26 161
4 26 32 29 28
4 28 31 29 38
4 46 38 41 39
4 46 38 39 40
4 28 117 40 45
4 118 28 117 161
4 162 24 118 161
4 118 119 163 164
4 136 119 164 163
4 25 133 21 163
4 128 16 21 124
4 165 166 153 154
4 166 167 168 169
4 167 168 169 170
4 171 168 172 166
4 124 173 126 154
4 123 121 133 124
4 120 125 122 121
4 122 158 44 43
4 47 46 40 42
4 52 50 174 48
4 175 50 174 54
4 176 175 177 178
4 179 60 180 181
4 64 69 63 65
4 68 72 67 66
4 70 73 182 71
4 74 79 183 75
4 184 78 185 79
4 79 184 186 187
4 186 184 188 187
4 184 189 190 191
4 184 78 79 186
4 78 189 184 191
4 189 184 190 188
4 184 78 191 192
4 184 78 192 185
4 192 78 80 185
4 193 80 194 185
4 195 81 196 194
4 81 79 196 194
4 197 187 196 198
4 187 79 185 196
4 79 184 187 185
4 197 199 187 198
4 199 197 187 200
4 199 200 187 186
4 78 201 79 186
4 189 201 87 78
4 202 201 79 74
4 201 74 92 87
4 201 202 92 74
4 201 202 79 186
4 202 203 74 79
4 202 198 203 79
4 204 202 199 203
4 202 203 205 74
4 202 204 205 203
4 182 203 74 205
4 74 203 183 79
4 79 203 183 198
4 79 81 198 183
4 81 79 198 196
4 187 79 196 198
4 202 198 79 186
4 202 204 94 205
4 94 95 205 206
4 207 208 209 210
4 208 207 211 210
4 104 103 211 65
4 104 60 212 213
4 214 215 216 217
4 218 219 220 221
4 222 174 220 221
4 46 39 222 174
4 52 46 40 48
4 40 49 52 48
4 53 49 52 113
4 40 49 155 113
4 155 45 47 40
4 157 47 223 155
4 49 223 224 48
4 52 50 51 54
4 175 54 57 178
4 218 175 54 57
4 225 219 54 57
4 218 175 57 177
4 57 217 219 218
4 219 225 226 57
4 225 227 226 57
4 59 110 57 227
4 59 60 61 228
4 61 60 213 228
4 64 61 213 228
4 63 61 213 64
4 61 104 211 65
4 180 60 104 62
4 58 229 62 180
4 58 60 180 62
4 60 61 104 62
4 60 226 230 212
4 226 60 213 212
4 60 104 212 230
4 179 60 230 104
4 104 211 231 62
4 180 229 62 232
4 180 232 62 231
4 179 60 104 180
4 233 181 105 179
4 181 105 179 230
4 105 214 106 230
4 105 214 230 177
4 215 214 218 217
4 215 217 218 219
4 218 215 219 221
4 218 175 174 54
4 39 52 220 174
4 39 46 52 174
4 115 52 112 35
4 28 115 117 161
4 162 118 116 161
4 24 162 118 163
4 20 19 234 163
4 25 133 163 119
4 120 119 158 235
4 236 119 235 159
4 235 119 158 159
4 119 235 133 136
4 138 235 236 164
4 45 47 42 159
4 46 38 40 42
4 49 50 52 48
4 237 175 176 178
4 181 233 177 176
4 180 179 231 104
4 207 103 65 211
4 207 103 68 65
4 65 66 103 68
4 103 66 97 93
4 66 103 97 63
4 213 104 63 238
4 238 97 103 63
4 104 102 103 238
4 104 106 212 230
4 214 212 106 230
4 214 212 216 106
4 214 212 217 216
4 214 212 230 217
4 226 217 230 212
4 226 60 230 57
4 181 60 57 230
4 179 105 104 230
4 179 105 101 104
4 104 239 103 101
4 239 101 240 100
4 91 241 240 100
4 241 239 240 100
4 239 241 103 100
4 103 210 93 241
4 103 207 93 210
4 210 103 231 239
4 103 239 104 231
4 103 104 63 65
4 65 66 63 103
4 65 66 68 69
4 68 72 66 93
4 96 98 242 97
4 85 96 99 243
4 85 86 99 74
4 86 89 99 74
4 88 86 244 92
4 74 86 92 87
4 201 244 87 92
4 244 86 87 92
4 90 74 92 94
4 94 95 206 245
4 95 209 206 245
4 245 207 95 209
4 208 232 231 211
4 180 104 231 62
4 181 60 107 57
4 54 175 51 178
4 50 52 174 54
4 246 36 52 247
4 246 36 37 35
4 52 31 36 35
4 31 39 52 36
4 39 46 222 41
4 39 222 174 220
4 174 218 220 221
4 218 219 54 220
4 225 219 220 54
4 56 110 54 57
4 110 56 59 57
4 60 59 226 228
4 60 226 213 228
4 57 217 230 226
4 214 217 230 218
4 218 57 230 177
4 181 105 230 177
4 179 60 181 230
4 58 107 180 60
4 229 107 58 248
4 229 107 180 58
4 60 58 59 62
4 58 107 56 248
4 108 56 109 55
4 108 56 55 248
4 107 56 55 57
4 107 181 57 178
4 57 181 177 178
4 181 176 177 178
4 233 181 177 105
4 249 239 101 240
4 91 89 241 100
4 89 91 241 90
4 210 245 93 241
4 245 241 90 93
4 93 94 90 245
4 74 202 92 94
4 205 204 94 206
4 202 198 199 203
4 202 198 186 199
4 199 197 200 250
4 199 186 187 198
4 200 186 188 187
4 184 189 186 188
4 201 189 87 244
4 189 201 78 186
4 201 78 79 87
4 189 78 184 186
4 186 79 187 198
4 74 201 79 87
4 74 79 84 87
4 79 78 84 87
4 77 78 84 79
4 74 77 84 79
4 74 85 84 76
4 83 243 76 85
4 85 96 243 76
4 73 96 74 76
4 96 93 74 99
4 89 93 99 74
4 93 94 74 90
4 93 94 245 95
4 207 95 68 93
4 95 70 68 93
4 95 70 74 205
4 74 70 182 205
4 94 95 74 205
4 241 89 90 93
4 104 179 231 239
4 181 60 180 107
4 107 57 55 178
4 57 54 55 178
4 53 49 51 52
4 40 49 113 52
4 155 47 223 48
4 45 47 159 156
4 119 156 45 159
4 120 44 119 121
4 16 173 124 154
4 166 167 169 145
4 145 7 147 251
4 9 7 252 149
4 253 254 252 255
4 256 253 255 254
4 6 9 252 255
4 253 257 149 252
4 7 258 259 260
4 260 261 251 170
4 169 260 251 170
4 169 251 167 170
4 166 167 145 171
4 16 22 18 130
4 25 24 20 23
4 24 25 118 28
4 119 156 118 45
4 119 28 45 118
4 119 45 44 158
4 44 38 28 29
4 25 28 26 30
4 25 24 26 28
4 24 20 234 163
4 162 24 234 163
4 163 119 118 25
4 235 135 133 136
4 135 134 140 133
4 145 141 153 144
4 145 260 169 151
4 0 258 4 5
4 259 258 262 263
4 264 259 262 263
4 258 7 262 0
4 260 258 259 261
4 258 261 263 259
4 261 258 263 265
4 261 260 251 259
4 167 251 169 145
4 145 260 251 169
4 166 167 171 168
4 16 171 153 140
4 137 135 136 134
4 138 135 235 136
4 235 138 136 164
4 236 119 156 164
4 157 156 159 47
4 155 47 48 40
4 40 49 48 155
4 46 52 174 48
4 247 225 220 54
4 110 225 57 227
4 60 59 57 226
4 104 61 211 62
4 232 211 62 231
4 103 104 211 231
4 239 210 103 241
4 241 93 103 100
4 68 72 93 70
4 103 207 68 93
4 207 103 211 210
4 210 208 231 211
4 103 210 231 211
4 245 207 210 93
4 245 207 209 210
4 245 207 93 95
4 70 95 74 93
4 70 73 74 182
4 182 203 183 74
4 202 74 205 94
4 93 89 90 74
4 89 241 100 93
4 93 98 103 100
4 101 104 102 103
4 104 101 102 106
4 106 238 104 212
4 266 216 212 106
4 106 238 212 266
4 106 238 102 104
4 267 266 238 102
4 97 102 267 238
4 106 238 266 102
4 97 102 238 103
4 97 102 103 98
4 97 102 98 267
4 97 98 242 267
4 96 98 99 242
4 89 98 99 93
4 239 101 100 103
4 104 179 239 101
4 179 249 239 101
4 105 179 101 249
4 233 105 249 179
4 177 181 57 230
4 175 57 177 178
4 175 237 51 178
4 55 54 51 178
4 112 111 109 53
4 112 53 52 113
4 117 115 113 114
4 116 118 117 161
4 115 116 117 161
4 28 115 161 32
4 29 32 26 34
4 26 30 29 27
4 34 26 29 27
4 29 34 31 32
4 31 115 32 35
4 31 115 28 32
4 246 112 52 35
4 246 247 52 54
4 247 110 225 54
4 59 227 57 226
4 213 104 238 212
4 104 103 63 238
4 97 98 103 93
4 70 73 72 74
4 71 182 268 73
4 182 75 268 73
4 182 75 183 268
4 183 81 268 75
4 182 75 74 183
4 79 81 183 75
4 79 81 80 194
4 78 192 80 82
4 192 193 80 82
4 269 193 192 82
4 193 192 80 185
4 80 79 194 185
4 77 74 75 79
4 85 96 76 74
4 96 243 242 99
4 98 102 103 100
4 104 105 106 230
4 214 218 230 177
4 50 175 51 54
4 49 155 223 48
4 157 156 236 159
4 236 119 159 156
4 235 119 164 136
4 236 119 164 235
4 133 235 120 123
4 120 235 133 119
4 135 123 235 133
4 124 173 123 126
4 173 172 126 154
4 166 171 154 172
4 172 171 154 173
4 171 16 154 173
4 171 166 154 153
4 16 171 154 153
4 124 173 16 133
4 124 173 133 123
4 25 133 119 121
4 19 16 133 21
4 163 19 133 21
4 134 19 133 136
4 133 119 136 163
4 133 19 163 136
4 132 20 18 19
4 20 132 234 19
4 20 19 163 21
4 22 20 21 18
4 16 22 21 18
4 128 129 127 21
4 160 129 21 127
4 160 21 25 127
4 25 20 21 23
4 25 27 23 160
4 25 27 30 26
4 23 22 21 160
4 16 129 21 22
4 128 130 165 270
4 128 130 270 129
4 128 130 16 165
4 16 165 153 154
4 17 16 14 153
4 131 17 18 14
4 17 141 153 15
4 12 10 15 153
4 15 17 14 153
4 153 16 14 130
4 16 129 22 130
4 128 130 129 16
4 16 128 165 154
4 151 166 153 165
4 260 145 7 151
4 9 6 252 7
4 7 262 252 149
4 260 259 7 251
4 7 259 147 251
4 264 259 271 149
4 259 7 147 149
4 146 148 147 149
4 271 259 147 149
4 148 271 147 149
4 146 142 143 141
4 144 141 140 139
4 141 134 140 139
4 143 141 144 139
4 142 145 141 146
4 145 142 141 144
4 148 142 143 146
4 145 7 10 146
4 145 150 151 153
4 151 272 150 7
4 151 272 273 150
4 151 272 4 273
4 4 272 2 273
4 151 272 7 4
4 4 260 7 151
4 166 145 151 153
4 166 145 169 151
4 171 166 153 145
4 133 16 140 173
4 124 16 21 133
4 25 21 160 23
4 21 129 160 22
4 121 21 124 127
4 121 120 133 119
4 123 121 125 120
4 123 121 120 133
4 25 133 121 21
4 25 20 163 21
4 118 24 28 161
4 26 28 161 32
4 40 115 28 31
4 115 52 113 112
4 246 112 109 52
4 246 52 109 54
4 56 54 109 55
4 56 107 55 248
4 58 60 59 57
4 63 61 65 104
4 68 72 70 67
4 182 75 73 74
4 77 79 75 80
4 196 79 185 194
4 79 78 185 80
4 77 78 82 84
4 83 77 82 84
4 77 74 84 76
4 96 74 93 72
4 103 66 93 68
4 65 66 69 63
4 63 61 104 213
4 61 60 104 213
4 59 227 226 228
4 274 110 227 225
4 246 36 247 37
4 246 36 35 52
4 52 115 40 31
4 28 31 38 40
4 44 42 158 45
4 120 44 122 158
4 135 133 140 173
4 171 16 173 140
4 171 144 153 140
4 141 144 140 153
4 10 141 15 153
4 10 12 15 13
4 10 8 12 13
4 8 10 12 11
4 8 9 11 255
4 9 253 149 252
4 257 262 149 252
4 262 259 149 7
4 258 7 4 260
4 259 258 7 262
4 262 0 7 252
4 0 6 7 252
4 254 6 252 255
4 0 3 6 252
4 6 3 254 252
4 272 6 11 7
4 4 6 272 7
4 4 6 2 272
4 9 6 11 255
4 9 253 252 255
4 262 264 257 149
4 257 264 275 271
4 259 264 262 149
4 257 264 271 149
4 9 146 7 149
4 10 7 11 9
4 7 12 10 11
4 145 150 153 12
4 12 145 10 153
4 145 146 10 141
4 145 142 147 146
4 171 145 153 144
4 171 142 145 144
4 142 171 145 167
4 142 145 147 167
4 167 145 147 251
4 145 260 7 251
4 145 150 12 7
4 12 145 7 10
4 12 152 153 14
4 152 153 14 130
4 152 151 153 165
4 165 152 276 270
4 152 151 165 276
4 165 152 270 130
4 152 151 276 150
4 276 150 151 273
4 272 7 11 150
4 7 12 11 150
4 153 150 152 12
4 165 16 153 130
4 165 152 130 153
4 15 12 153 14
4 13 131 14 15
4 17 131 15 14
4 17 132 18 19
4 25 24 163 20
4 25 24 118 163
4 119 156 164 118
4 118 117 45 156
4 155 45 117 156
4 113 40 117 155
4 50 49 224 48
4 49 50 224 51
4 50 237 224 51
4 237 50 175 51
4 52 54 220 174
4 52 247 220 54
4 39 247 220 52
4 39 247 52 36
4 115 52 35 31
4 40 115 52 113
4 40 115 113 117
4 115 112 113 114
4 53 52 51 54
4 54 53 109 55
4 52 53 109 54
4 110 246 109 54
4 247 110 54 246
4 247 110 274 225
4 246 274 37 247
4 247 110 246 274
4 110 225 54 57
4 57 217 226 219
4 57 217 218 230
4 219 218 54 57
4 218 54 174 220
4 46 39 52 40
4 39 31 52 40
4 38 42 45 40
4 28 38 44 45
4 121 25 44 119
4 123 135 173 133
4 134 153 140 16
4 134 16 140 133
4 137 135 134 140
4 134 153 141 140
4 134 153 16 17
4 16 17 19 134
4 134 153 17 141
4 153 145 10 141
4 6 9 11 7
4 258 7 0 4
4 1 0 2 5

CELL_TYPES 734
10
10
10
10
10
10
10
10
10
10
10
10
10
10
10
10
10
10
10
10
10
10
10
10
10
10
10
10
10
10
10
10
10
10
10
10
10
10
10
10
10
10
10
10
10
10
10
10
10
10
10
10
10
10
10
10
10
10
10
10
10
10
10
10
10
10
10
10
10
10
10
10
10
10
10
10
10
10
10
10
10
10
10
10
10
10
10
10
10
10
10
10
10
10
10
10
10
10
10
10
10
10
10
10
10
10
10
10
10
10
10
10
10
10
10
10
10
10
10
10
10
10
10
10
10
10
10
10
10
10
10
10
10
10
10
10
10
10
10
10
10
10
10
10
10
10
10
10
10
10
10
10
10
10
10
10
10
10
10
10
10
10
10
10
10
10
10
10
10
10
10
10
10
10
10
10
10
10
10
10
10
10
10
10
10
10
10
10
10
10
10
10
10
10
10
10
10
10
10
10
10
10
10
10
10
10
10
10
10
10
10
10
10
10
10
10
10
10
10
10
10
10
10
10
10
10
10
10
10
10
10
10
10
10
10
10
10
10
10
10
10
10
10
10
10
10
10
10
10
10
10
10
10
10
10
10
10
10
10
10
10
10
10
10
10
10
10
10
10
10
10
10
10
10
10
10
10
10
10
10
10
10
10
10
10
10
10
10
10
10
10
10
10
10
10
10
10
10
10
10
10
10
10
10
10
10
10
10
10
10
10
10
10
10
10
10
10
10
10
10
10
10
10
10
10
10
10
10
10
10
10
10
10
10
10
10
10
10
10
10
10
10
10
10
10
10
10
10
10
10
10
10
10
10
10
10
10
10
10
10
10
10
10
10
10
10
10
10
10
10
10
10
10
10
10
10
10
10
10
10
10
10
10
10
10
10
10
10
10
10
10
10
10
10
10
10
10
10
10
10
10
10
10
10
10
10
10
10
10
10
10
10
10
10
10
10
10
10
10
10
10
10
10
10
10
10
10
10
10
10
10
10
10
10
10
10
10
10
10
10
10
10
10
10
10
10
10
10
10
10
10
10
10
10
10
10
10
10
10
10
10
10
10
10
10
10
10
10
10
10
10
10
10
10
10
10
10
10
10
10
10
10
10
10
10
10
10
10
10
10
10
10
10
10
10
10
10
10
10
10
10
10
10
10
10
10
10
10
10
10
10
10
10
10
10
10
10
10
10
10
10
10
10
10
10
10
10
10
10
10
10
10
10
10
10
10
10
10
10
10
10
10
10
10
10
10
10
10
10
10
10
10
10
10
10
10
10
10
10
10
10
10
10
10
10
10
10
10
10
10
10
10
10
10
10
10
10
10
10
10
10
10
10
10
10
10
10
10
10
10
10
10
10
10
10
10
10
10
10
10
10
10
10
10
10
10
10
10
10
10
10
10
10
10
10
10
10
10
10
10
10
10
10
10
10
10
10
10
10
10
10
10
10
10
10
10
10
10
10
10
10
10
10
10
10
10
10
10
10
10
10
10
10
10
10
10
10
10
10
10
10
10
10
10
10
10
10
10
10
10
10
10
10
10
10
10
10
10
10
10
10
10
10
10
10
10
10
10
10
10
10
10
10
10
10
10
10
10
10
10
10
10
10
10
10
10
10
10
10
10
10
10
10
10
10
10
10
10
10
10
10
10
10
10
10
10
10
10
10
10
10
10
10
10

CELL_DATA 734
SCALARS potentialEnergy FLOAT 1
LOOKUP_TABLE default
21.882081
27.311186
39.844542
47.555183
36.723139
28.710344
27.888067
80.543694
170.614700
102.455070
34.114153
83.078499
20.476767
26.915798
43.387917
41.778177
29.817400
14.124310
186.108902
68.202892
39.488197
23.100277
162.409439
119.002258
56.494385
184.115494
101.301071
173.278076
229.170761
26.812565
227.190857
53.972462
73.029053
79.548546
47.979126
93.063019
52.706966
52.569504
43.588566
27.586138
59.213444
72.547142
88.988319
60.437607
111.942230
68.469963
108.875740
121.615891
45.710514
138.744873
253.201187
345.275116
516.191162
65.548634
229.840973
132.516541
67.078041
146.264343
83.305527
171.703049
59.607170
115.679161
74.828346
95.740570
85.127327
34.377565
89.966080
125.852882
135.788879
49.682270
78.982079
50.594765
34.080528
88.423004
107.044281
62.214127
75.453987
117.294380
106.911476
117.063072
76.962036
31.876173
217.814240
51.050438
129.083961
37.252359
39.957952
23.102672
134.498611
68.736465
69.023994
87.620117
41.519625
67.895157
85.254387
323.522705
185.144150
93.051987
47.712170
27.797585
43.301670
117.747665
73.553024
39.824074
41.171524
58.716820
74.040260
25.449788
34.526968
53.302357
61.874912
29.629753
26.739674
194.766708
220.391541
75.898323
151.346283
68.385437
41.050617
94.419662
117.737671
194.439850
26.130238
39.727875
70.751606
35.226015
42.434231
225.319901
37.741554
98.002373
241.506317
53.873768
118.015610
86.548340
74.269028
16.757986
142.910416
64.324337
124.397285
81.605453
178.255966
110.381302
97.899025
224.332642
67.190224
176.455002
77.070335
56.318897
68.214451
120.673042
215.222427
142.943176
102.930840
102.002518
62.222897
147.636551
86.608910
123.287239
101.673309
38.263512
29.766827
107.066483
39.634277
71.880611
45.304291
131.482727
246.146851
84.387428
152.947586
73.791149
112.278099
167.030640
120.513992
150.425232
82.407860
159.819458
134.826920
53.721886
55.956718
110.287643
52.582680
87.243591
71.040745
60.903790
84.155540
50.388908
119.356773
120.543709
22.310299
85.925415
279.683990
217.321823
141.072235
92.285942
93.229660
109.658646
105.192604
91.862305
102.294014
153.546173
131.785423
298.798187
259.559799
219.418045
83.279236
61.804714
51.596821
105.393799
69.732487
127.716942
290.054871
71.453510
63.301991
99.571411
32.999802
264.832474
104.200653
32.449171
36.186806
41.994446
51.666161
76.621315
126.743401
93.307129
61.022232
126.482323
141.362183
107.275909
80.347557
62.788544
135.205605
113.236908
71.884838
95.685699
145.708725
124.991692
82.224518
103.862007
70.093437
74.688110
105.218788
270.188293
70.214596
109.900017
84.134262
73.490685
138.786423
143.617767
175.213211
180.942596
47.709801
170.978622
76.974159
61.521549
88.060806
95.568130
49.675442
34.738588
190.772049
54.461430
147.440186
63.760334
81.784958
184.573746
66.375748
55.057991
313.122192
109.033173
157.081299
138.382645
240.464767
149.998581
73.028873
53.882618
75.125771
76.156250
349.955719
235.963120
26.988739
43.792660
45.716061
97.577560
48.762203
52.626938
25.815550
49.146530
91.353577
244.329605
73.184708
191.486328
61.167381
94.384651
179.583893
225.477371
92.109871
18.821391
64.241119
119.957924
185.717392
48.170910
149.036865
100.906830
136.981140
150.152756
404.464478
161.882919
96.965729
140.044632
144.128128
73.763901
152.619934
28.555677
100.738235
166.902206
43.379539
156.807541
95.463028
98.354958
73.335205
112.045776
153.760818
112.721085
80.873734
85.149147
57.205280
90.625366
72.170155
95.641418
125.314964
130.612823
55.013046
439.336090
199.562958
237.972504
86.416946
210.607254
120.301239
333.291901
34.126665
50.481812
95.678284
133.638924
187.841324
56.871689
26.821503
56.867565
38.676964
113.474640
55.829300
74.525261
47.415813
70.575768
109.738426
111.065208
87.039246
122.260017
91.838104
183.231445
109.273315
95.184471
104.821648
142.952469
101.618195
76.821625
77.516823
81.987427
51.893101
54.183155
155.195358
180.470490
95.944603
154.415878
50.781078
64.675919
75.416817
15.561550
19.735742
18.196786
52.337570
19.673153
96.042740
41.318489
63.596851
59.009586
42.136513
161.969254
46.364655
57.186462
44.285408
35.966869
112.065651
84.964676
19.597277
66.436676
63.047905
77.820137
52.260647
49.864883
105.122444
31.109417
68.980488
71.128849
27.029942
21.727395
15.407016
23.496651
82.675827
35.405441
31.437922
91.844055
111.830345
29.482878
37.863295
56.617970
46.908638
108.128242
46.434429
100.484734
141.998138
106.207306
57.007305
144.038361
133.974968
125.567162
138.843445
99.446945
78.200523
83.932266
306.306976
208.812881
269.052338
181.005692
117.567383
246.539734
171.289291
83.364647
122.936897
110.236450
75.887680
82.789268
132.451546
101.498360
169.083191
150.703995
74.967918
58.093189
95.678436
86.995895
66.845020
86.171074
108.282761
26.770763
45.416882
92.791435
117.595741
29.066189
147.490158
59.778664
197.045593
133.398293
74.991417
54.206059
54.077496
35.452679
78.841248
277.386414
94.078636
159.900818
83.570992
71.127335
27.967375
77.529869
96.160515
46.861755
48.608810
37.535799
25.513106
53.226109
108.575806
52.775208
64.838902
117.992699
145.596390
250.299637
74.252197
52.218307
218.168335
74.929070
47.298489
93.387337
72.850937
43.461163
98.795998
84.834618
154.002640
66.662262
55.201839
195.438293
55.228378
70.267765
52.412952
136.884819
149.090210
78.093445
25.938227
154.059799
269.793762
123.136505
53.872501
108.198280
88.748444
69.678276
47.390434
140.247253
84.631561
75.775772
26.312187
38.140896
22.532259
27.201485
21.180344
51.399681
107.095375
130.621986
126.877098
104.614716
177.656219
84.587494
268.354034
204.364655
146.029602
186.320953
221.520294
114.758217
109.304619
84.130257
92.174454
49.688026
76.299973
98.786293
27.887476
91.779495
114.475685
49.865864
142.672256
55.422844
37.159174
21.420734
44.437717
51.921024
97.933502
74.077919
85.239967
145.921097
113.133102
99.179489
17.343324
131.698509
59.045361
39.028851
44.898472
23.594528
45.023544
27.234690
64.696449
32.872871
41.098330
50.783855
31.143469
44.704575
37.033724
51.392902
36.648520
58.897118
46.521370
105.839172
88.958794
64.766411
117.412888
95.602119
138.201111
89.154709
21.582306
29.420544
56.533283
142.693024
102.864716
84.420021
79.071976
48.299557
179.503052
32.758856
69.418362
120.159721
76.006760
50.707523
29.653931
177.134384
45.375248
80.003769
92.358475
176.793274
57.912220
262.444809
107.217567
145.007370
124.600014
115.468033
73.231609
102.851425
140.841690
159.173599
94.639931
127.286034
209.802780
53.684948
126.086815
247.542267
229.857056
107.100266
86.187019
99.356598
49.101688
85.613525
39.223667
31.573236
76.982506
32.356377
39.874525
44.221588
51.512295
33.134600
58.592075
138.509308
40.109776
56.873386
22.802049
23.435043
56.015858
18.249622
13.927402
56.247547
36.196043
20.152641
19.786196
103.141106
68.289856
83.885078
28.795809
28.051485
23.055539
47.298634
31.685797
53.527252
29.585617
30.964041
50.755074
107.787918
62.466904
31.517956
68.282837
31.102831
24.135553
38.914688
111.121864
70.156509
78.056877
161.760239
93.384720
71.729725
36.435835
52.270252
82.428566
57.173332
25.929985
76.533310
109.522369
158.562134
150.788025
62.481049
22.441673
103.565605
71.083931
40.911699
62.966114
71.268921
44.817238
63.494556
76.080711
76.275406
230.895584
72.922413
55.978043
30.250595
42.560917
63.847076
85.070259
138.252701
156.606171
86.741837
103.181099
51.658554
30.841095
53.239285
89.451180
163.174850
128.624924
72.973385
139.094803
82.419937
188.320465
87.758240
147.573746
243.208023
127.481461
51.334362
208.832352
79.303856
63.898312
80.197556
35.288864
72.647049
80.385162
65.304699
151.316315
60.591076
72.364475
17.986444
75.988419
123.205223
45.860371
57.823162
116.206352
19.334835

