# vtk DataFile Version 3.1
Tetrahedral Mesh Visualization
ASCII
DATASET UNSTRUCTURED_GRID

POINTS 277 FLOAT
0.000000 1.378113 1.754166
0.000000 0.000000 0.000000
2.002086 -0.012008 0.007805
0.000000 1.666667 0.000000
2.422449 -0.010786 1.740043
0.000000 0.000000 1.666667
1.700759 2.451228 0.002624
3.000159 2.442987 2.326159
4.018162 4.969267 0.009523
3.079449 4.981368 1.638800
5.218802 4.972875 1.632328
3.508124 3.152560 0.012389
5.433712 3.272306 0.037954
6.026616 4.967290 0.042055
7.397177 3.293965 0.083406
6.979403 4.971341 1.385094
9.259466 2.158254 2.168772
8.698609 4.973435 1.713785
9.378958 3.299153 0.127113
10.661196 4.977449 1.793720
11.372465 3.310637 0.155008
11.125556 1.844954 1.718851
10.709712 1.637122 0.157445
12.705561 1.655447 0.180421
13.372592 3.330079 0.182422
12.987592 1.870070 1.675006
14.709035 1.677438 0.205446
14.045529 0.006662 0.202087
15.480620 2.160207 1.908451
15.352111 0.016598 1.883216
13.354586 0.000216 1.858082
17.309187 0.013742 1.855958
16.703936 1.682248 0.233537
18.030321 0.011910 0.251769
16.034651 0.021571 0.223839
18.699802 1.686569 0.248707
19.022738 0.021030 1.576219
20.028124 0.035326 0.254485
16.731539 0.027003 3.545326
19.006626 0.028209 3.368497
17.701601 2.704531 3.188478
17.985298 0.037096 5.248783
16.656267 1.695379 5.238114
15.978931 0.031664 5.234797
14.677083 0.015588 3.543230
15.763350 2.904299 3.574112
18.711998 1.732650 5.252554
17.285465 3.366078 5.233633
19.257980 3.427843 5.249603
19.309507 5.029889 3.576463
20.967867 3.731351 5.257335
21.314569 5.043713 3.594711
19.629337 2.519147 2.611626
20.661364 5.033967 1.926542
21.913044 2.548993 2.741327
22.661530 5.049886 1.944062
23.311226 3.442272 0.284106
23.971031 2.498521 2.587423
25.020744 3.735949 0.299304
25.016338 1.948645 0.292642
25.990593 2.553578 2.035704
27.269508 1.747119 0.306166
26.728722 3.445925 0.306706
29.269419 0.034045 1.945954
28.011787 0.040787 0.322743
29.319586 1.700763 0.324351
30.985643 0.028985 1.678775
32.007725 0.016988 0.362944
31.323030 1.681393 0.354559
30.015873 0.026276 0.343443
33.288158 1.664560 0.370182
34.008392 0.014144 0.374621
32.676018 0.029637 1.981858
34.595848 0.035607 2.058655
34.994499 2.439074 2.914009
36.508766 0.028476 2.199675
35.136040 0.040276 3.763265
36.825153 0.039622 3.931098
38.278393 2.578837 5.398345
37.690109 2.192270 2.577893
38.298519 0.026700 2.932598
38.015995 0.011272 0.394936
37.982594 0.061186 5.403173
35.988041 0.055892 5.382014
36.546593 1.804672 5.384499
34.917641 1.380765 5.375825
34.837318 3.178767 5.367373
36.744625 3.543637 5.371504
33.985779 5.041635 5.351346
32.678661 3.335841 5.363802
33.271782 5.031059 3.699827
31.988100 5.031724 5.359159
35.155899 5.041027 3.744983
32.202793 2.632729 2.796287
34.600243 5.017213 2.045968
32.652145 3.335001 0.359242
33.200550 0.031489 3.680090
30.973564 0.037461 3.471692
31.293550 1.693125 5.361082
33.229488 1.638895 5.364603
30.647545 3.363043 5.338278
28.645117 3.367260 5.319038
29.308634 1.700017 5.333784
30.016119 2.533569 2.808835
27.958902 2.532842 2.791164
26.640905 3.379214 5.308952
27.304134 1.710415 5.308899
24.663612 5.049179 1.963106
22.016676 5.049582 0.272272
21.357277 3.386980 0.264035
22.757008 1.746672 0.270047
20.016123 5.036653 0.257328
19.361090 3.363405 0.251167
18.660957 5.025472 1.906674
18.018827 5.018424 0.231415
17.366049 3.347212 0.238179
16.027750 5.011172 0.207624
16.661770 5.015763 1.885145
14.662568 5.012533 1.861504
13.681964 2.967836 3.457020
12.970428 1.335719 5.185632
12.663377 0.002044 3.519050
13.982112 0.021201 5.206485
11.248329 1.623633 5.162611
10.652462 -0.008042 3.499939
11.978278 0.016122 5.183140
9.968389 0.012940 5.158974
11.348162 -0.016908 1.839926
9.325208 -0.022923 1.821681
10.039368 -0.028621 0.158661
8.725421 1.631592 0.129179
8.032799 4.964889 0.085569
10.030882 4.964700 0.120921
11.213587 2.636402 3.443903
9.233235 4.989114 3.417665
10.701651 3.320685 5.145667
11.286765 4.996333 3.472160
9.956619 5.006344 5.127008
11.957662 5.016389 5.149663
7.953540 5.006455 5.086990
8.700877 3.395348 5.118765
6.948674 4.988140 3.175254
5.329226 3.367823 5.047134
5.964401 5.009604 5.041290
6.993765 3.684820 5.073079
5.132737 2.354451 3.180979
4.612308 4.982090 3.306105
3.472264 3.184660 5.014661
3.979426 5.000508 5.009895
2.369559 4.994143 3.273801
4.866428 1.577814 0.032822
4.914056 -0.016868 1.913891
6.758386 1.625441 0.082443
7.014318 2.541220 2.275356
8.640839 -0.004928 3.475623
17.307762 5.018818 3.559306
15.304627 5.015397 3.539665
15.960354 5.027658 5.211027
14.683070 1.635860 5.211035
15.230619 3.329949 5.209917
12.042873 -0.017868 0.180081
15.368548 3.345634 0.209996
14.027129 5.001884 0.182702
12.659591 4.993425 1.825790
13.300017 5.003312 3.503447
7.256124 -0.022543 1.794779
6.656372 -0.009883 3.463904
4.888824 1.640871 5.048611
5.974213 -0.003785 5.075974
4.905343 -0.012551 3.707458
3.985829 -0.010411 5.029429
7.013780 1.892078 5.087259
7.962062 0.010578 5.121903
9.245676 1.700097 5.137841
20.980265 1.938176 5.257993
22.676746 3.445140 5.273936
23.974110 5.053844 5.281507
24.636763 3.391315 5.291037
23.313551 5.050824 3.613938
27.321852 5.037548 3.644186
26.668846 5.049156 1.973905
25.319530 5.038874 3.631245
35.175396 1.616687 0.369718
36.854042 1.462012 0.378071
39.989880 3.281702 4.025961
39.992477 1.652772 3.013272
38.303810 5.026927 2.895949
40.005775 3.269257 2.301297
39.989975 5.035875 3.710177
37.978592 5.073383 5.353204
39.976574 5.071938 5.369648
39.976601 3.396032 5.396227
39.978580 1.718978 5.416873
39.991100 0.034478 3.756889
39.999088 0.014299 2.086825
40.019646 -0.003678 0.424394
40.024673 1.666812 0.420317
40.016560 3.331411 0.398359
38.330959 2.471195 0.395810
38.020302 5.005738 0.365153
40.001938 5.019908 2.043632
36.830029 5.048828 3.894885
36.514675 5.019914 2.163224
36.534309 3.179626 0.363169
36.012043 4.992727 0.337198
34.614510 3.303891 0.361522
34.017189 4.999310 0.348959
30.674177 3.351745 0.339537
30.033808 5.022851 0.333836
32.025661 5.012908 0.338614
30.665197 5.021792 2.008101
28.681870 3.374110 0.315110
26.718235 0.041089 3.694649
27.267351 0.042400 2.002125
25.291088 1.722009 5.296948
23.984707 0.052567 5.279888
25.980238 0.048651 5.305523
24.996517 0.042604 3.965828
23.241701 1.748436 5.271021
23.274672 0.041390 3.655779
21.265913 0.038129 3.566394
21.985998 0.051698 5.265049
19.993378 0.040862 5.256259
17.963442 5.028376 5.231860
19.964748 5.041807 5.248054
22.748642 0.044695 1.956162
25.009995 0.055575 2.176097
24.025381 0.053527 0.279432
26.016916 0.049031 0.295162
26.024191 5.055187 0.308174
25.694565 2.280128 3.790381
28.669048 5.031189 1.985155
28.031893 5.044072 0.318437
25.977436 5.044843 5.300158
12.026445 4.983939 0.153650
12.961500 3.126547 5.177655
13.950873 5.015682 5.184715
21.968597 5.053607 5.265384
28.724588 0.039265 3.640035
29.320835 5.035923 3.661425
29.982914 5.033715 5.336819
31.309116 5.035891 3.688845
31.980612 0.039053 5.364634
33.987549 0.040760 5.371495
35.984673 5.065159 5.346404
32.640381 5.019922 2.020433
20.708738 1.713935 0.258052
20.742498 0.035148 1.867042
24.018566 5.053041 0.295243
27.982590 5.034739 5.314497
40.022873 4.990453 0.371456
3.172081 1.458223 5.011476
0.000000 3.103853 1.750106
0.000000 5.000000 1.666667
0.000000 3.333333 0.000000
2.000295 4.976614 -0.003633
0.000000 5.000000 0.000000
0.000000 5.000000 3.333333
0.000000 0.000000 3.333333
1.693001 2.462375 5.000879
3.036318 -0.011919 3.397742
1.998868 -0.013568 5.003516
0.000000 2.403264 3.370902
0.000000 1.666667 5.000000
0.000000 3.333333 5.000000
0.000000 0.000000 5.000000
27.977077 0.044324 5.324235
29.978109 0.036232 5.349326
36.012207 0.008979 0.375476
39.974720 0.057393 5.435481
8.040007 -0.026749 0.119435
1.998986 4.991432 5.000396
3.177480 1.434020 0.016760
4.018708 -0.013357 0.023028
22.026659 0.044553 0.259159
0.000000 5.000000 5.000000
6.038891 -0.020834 0.065699

CELLS 734 3670
4 0 1 2 3
4 0 4 2 5
4 0 3 2 6
4 4 6 0 2
4 4 6 7 0
4 8 9 10 11
4 12 13 14 15
4 16 17 14 18
4 19 20 18 21
4 20 22 21 23
4 24 25 26 23
4 25 27 26 23
4 26 28 29 30
4 28 29 31 32
4 33 34 32 31
4 31 33 35 32
4 31 33 36 35
4 33 37 36 35
4 38 39 40 31
4 41 42 43 38
4 44 42 45 38
4 44 42 38 43
4 46 38 42 41
4 46 47 40 48
4 49 50 51 52
4 53 54 51 55
4 56 54 55 57
4 56 58 59 57
4 60 59 61 62
4 63 61 64 65
4 66 67 68 69
4 67 70 71 72
4 73 74 75 76
4 74 77 75 76
4 77 78 79 80
4 79 81 75 80
4 77 78 80 82
4 77 83 76 84
4 83 85 76 84
4 85 86 74 84
4 74 86 87 84
4 88 89 86 90
4 91 89 88 90
4 86 88 90 92
4 90 86 92 74
4 86 89 74 90
4 93 94 95 74
4 70 74 72 93
4 70 73 71 72
4 74 96 73 72
4 66 97 93 72
4 96 97 72 93
4 96 98 97 93
4 85 96 74 99
4 96 98 93 99
4 98 89 100 93
4 101 102 100 103
4 104 105 101 106
4 107 58 57 60
4 58 107 57 56
4 53 108 109 55
4 56 110 109 54
4 53 111 109 108
4 112 53 109 52
4 111 112 113 53
4 112 111 113 114
4 115 116 114 117
4 40 28 115 117
4 45 117 118 28
4 119 28 25 44
4 120 44 121 122
4 123 121 124 125
4 125 123 126 124
4 127 128 21 124
4 16 129 128 21
4 16 18 14 130
4 16 17 18 19
4 131 17 132 18
4 16 19 18 21
4 133 16 19 134
4 135 134 133 136
4 135 137 136 138
4 137 134 139 140
4 141 142 143 144
4 145 146 147 7
4 142 148 147 146
4 7 146 147 149
4 10 7 9 146
4 145 150 7 151
4 152 151 150 153
4 16 128 154 124
4 124 21 121 133
4 25 28 30 44
4 28 38 45 40
4 45 47 40 42
4 155 45 156 47
4 157 156 47 155
4 155 45 40 117
4 45 42 158 159
4 44 42 43 158
4 119 45 158 159
4 120 44 158 119
4 25 127 21 121
4 25 27 160 30
4 127 25 160 30
4 25 127 121 30
4 44 25 121 30
4 28 30 44 29
4 119 28 44 45
4 119 28 118 25
4 28 24 26 161
4 26 32 29 28
4 28 31 29 38
4 46 38 41 39
4 46 38 39 40
4 28 117 40 45
4 118 28 117 161
4 162 24 118 161
4 118 119 163 164
4 136 119 164 163
4 25 133 21 163
4 128 16 21 124
4 165 166 153 154
4 166 167 168 169
4 167 168 169 170
4 171 168 172 166
4 124 173 126 154
4 123 121 133 124
4 120 125 122 121
4 122 158 44 43
4 47 46 40 42
4 52 50 174 48
4 175 50 174 54
4 176 175 177 178
4 179 60 180 181
4 64 69 63 65
4 68 72 67 66
4 70 73 182 71
4 74 79 183 75
4 184 78 185 79
4 79 184 186 187
4 186 184 188 187
4 184 189 190 191
4 184 78 79 186
4 78 189 184 191
4 189 184 190 188
4 184 78 191 192
4 184 78 192 185
4 192 78 80 185
4 193 80 194 185
4 195 81 196 194
4 81 79 196 194
4 197 187 196 198
4 187 79 185 196
4 79 184 187 185
4 197 199 187 198
4 199 197 187 200
4 199 200 187 186
4 78 201 79 186
4 189 201 87 78
4 202 201 79 74
4 201 74 92 87
4 201 202 92 74
4 201 202 79 186
4 202 203 74 79
4 202 198 203 79
4 204 202 199 203
4 202 203 205 74
4 202 204 205 203
4 182 203 74 205
4 74 203 183 79
4 79 203 183 198
4 79 81 198 183
4 81 79 198 196
4 187 79 196 198
4 202 198 79 186
4 202 204 94 205
4 94 95 205 206
4 207 208 209 210
4 208 207 211 210
4 104 103 211 65
4 104 60 212 213
4 214 215 216 217
4 218 219 220 221
4 222 174 220 221
4 46 39 222 174
4 52 46 40 48
4 40 49 52 48
4 53 49 52 113
4 40 49 155 113
4 155 45 47 40
4 157 47 223 155
4 49 223 224 48
4 52 50 51 54
4 175 54 57 178
4 218 175 54 57
4 225 219 54 57
4 218 175 57 177
4 57 217 219 218
4 219 225 226 57
4 225 227 226 57
4 59 110 57 227
4 59 60 61 228
4 61 60 213 228
4 64 61 213 228
4 63 61 213 64
4 61 104 211 65
4 180 60 104 62
4 58 229 62 180
4 58 60 180 62
4 60 61 104 62
4 60 226 230 212
4 226 60 213 212
4 60 104 212 230
4 179 60 230 104
4 104 211 231 62
4 180 229 62 232
4 180 232 62 231
4 179 60 104 180
4 233 181 105 179
4 181 105 179 230
4 105 214 106 230
4 105 214 230 177
4 215 214 218 217
4 215 217 218 219
4 218 215 219 221
4 218 175 174 54
4 39 52 220 174
4 39 46 52 174
4 115 52 112 35
4 28 115 117 161
4 162 118 116 161
4 24 162 118 163
4 20 19 234 163
4 25 133 163 119
4 120 119 158 235
4 236 119 235 159
4 235 119 158 159
4 119 235 133 136
4 138 235 236 164
4 45 47 42 159
4 46 38 40 42
4 49 50 52 48
4 237 175 176 178
4 181 233 177 176
4 180 179 231 104
4 207 103 65 211
4 207 103 68 65
4 65 66 103 68
4 103 66 97 93
4 66 103 97 63
4 213 104 63 238
4 238 97 103 63
4 104 102 103 238
4 104 106 212 230
4 214 212 106 230
4 214 212 216 106
4 214 212 217 216
4 214 212 230 217
4 226 217 230 212
4 226 60 230 57
4 181 60 57 230
4 179 105 104 230
4 179 105 101 104
4 104 239 103 101
4 239 101 240 100
4 91 241 240 100
4 241 239 240 100
4 239 241 103 100
4 103 210 93 241
4 103 207 93 210
4 210 103 231 239
4 103 239 104 231
4 103 104 63 65
4 65 66 63 103
4 65 66 68 69
4 68 72 66 93
4 96 98 242 97
4 85 96 99 243
4 85 86 99 74
4 86 89 99 74
4 88 86 244 92
4 74 86 92 87
4 201 244 87 92
4 244 86 87 92
4 90 74 92 94
4 94 95 206 245
4 95 209 206 245
4 245 207 95 209
4 208 232 231 211
4 180 104 231 62
4 181 60 107 57
4 54 175 51 178
4 50 52 174 54
4 246 36 52 247
4 246 36 37 35
4 52 31 36 35
4 31 39 52 36
4 39 46 222 41
4 39 222 174 220
4 174 218 220 221
4 218 219 54 220
4 225 219 220 54
4 56 110 54 57
4 110 56 59 57
4 60 59 226 228
4 60 226 213 228
4 57 217 230 226
4 214 217 230 218
4 218 57 230 177
4 181 105 230 177
4 179 60 181 230
4 58 107 180 60
4 229 107 58 248
4 229 107 180 58
4 60 58 59 62
4 58 107 56 248
4 108 56 109 55
4 108 56 55 248
4 107 56 55 57
4 107 181 57 178
4 57 181 177 178
4 181 176 177 178
4 233 181 177 105
4 249 239 101 240
4 91 89 241 100
4 89 91 241 90
4 210 245 93 241
4 245 241 90 93
4 93 94 90 245
4 74 202 92 94
4 205 204 94 206
4 202 198 199 203
4 202 198 186 199
4 199 197 200 250
4 199 186 187 198
4 200 186 188 187
4 184 189 186 188
4 201 189 87 244
4 189 201 78 186
4 201 78 79 87
4 189 78 184 186
4 186 79 187 198
4 74 201 79 87
4 74 79 84 87
4 79 78 84 87
4 77 78 84 79
4 74 77 84 79
4 74 85 84 76
4 83 243 76 85
4 85 96 243 76
4 73 96 74 76
4 96 93 74 99
4 89 93 99 74
4 93 94 74 90
4 93 94 245 95
4 207 95 68 93
4 95 70 68 93
4 95 70 74 205
4 74 70 182 205
4 94 95 74 205
4 241 89 90 93
4 104 179 231 239
4 181 60 180 107
4 107 57 55 178
4 57 54 55 178
4 53 49 51 52
4 40 49 113 52
4 155 47 223 48
4 45 47 159 156
4 119 156 45 159
4 120 44 119 121
4 16 173 124 154
4 166 167 169 145
4 145 7 147 251
4 9 7 252 149
4 253 254 252 255
4 256 253 255 254
4 6 9 252 255
4 253 257 149 252
4 7 258 259 260
4 260 261 251 170
4 169 260 251 170
4 169 251 167 170
4 166 167 145 171
4 16 22 18 130
4 25 24 20 23
4 24 25 118 28
4 119 156 118 45
4 119 28 45 118
4 119 45 44 158
4 44 38 28 29
4 25 28 26 30
4 25 24 26 28
4 24 20 234 163
4 162 24 234 163
4 163 119 118 25
4 235 135 133 136
4 135 134 140 133
4 145 141 153 144
4 145 260 169 151
4 0 258 4 5
4 259 258 262 263
4 264 259 262 263
4 258 7 262 0
4 260 258 259 261
4 258 261 263 259
4 261 258 263 265
4 261 260 251 259
4 167 251 169 145
4 145 260 251 169
4 166 167 171 168
4 16 171 153 140
4 137 135 136 134
4 138 135 235 136
4 235 138 136 164
4 236 119 156 164
4 157 156 159 47
4 155 47 48 40
4 40 49 48 155
4 46 52 174 48
4 247 225 220 54
4 110 225 57 227
4 60 59 57 226
4 104 61 211 62
4 232 211 62 231
4 103 104 211 231
4 239 210 103 241
4 241 93 103 100
4 68 72 93 70
4 103 207 68 93
4 207 103 211 210
4 210 208 231 211
4 103 210 231 211
4 245 207 210 93
4 245 207 209 210
4 245 207 93 95
4 70 95 74 93
4 70 73 74 182
4 182 203 183 74
4 202 74 205 94
4 93 89 90 74
4 89 241 100 93
4 93 98 103 100
4 101 104 102 103
4 104 101 102 106
4 106 238 104 212
4 266 216 212 106
4 106 238 212 266
4 106 238 102 104
4 267 266 238 102
4 97 102 267 238
4 106 238 266 102
4 97 102 238 103
4 97 102 103 98
4 97 102 98 267
4 97 98 242 267
4 96 98 99 242
4 89 98 99 93
4 239 101 100 103
4 104 179 239 101
4 179 249 239 101
4 105 179 101 249
4 233 105 249 179
4 177 181 57 230
4 175 57 177 178
4 175 237 51 178
4 55 54 51 178
4 112 111 109 53
4 112 53 52 113
4 117 115 113 114
4 116 118 117 161
4 115 116 117 161
4 28 115 161 32
4 29 32 26 34
4 26 30 29 27
4 34 26 29 27
4 29 34 31 32
4 31 115 32 35
4 31 115 28 32
4 246 112 52 35
4 246 247 52 54
4 247 110 225 54
4 59 227 57 226
4 213 104 238 212
4 104 103 63 238
4 97 98 103 93
4 70 73 72 74
4 71 182 268 73
4 182 75 268 73
4 182 75 183 268
4 183 81 268 75
4 182 75 74 183
4 79 81 183 75
4 79 81 80 194
4 78 192 80 82
4 192 193 80 82
4 269 193 192 82
4 193 192 80 185
4 80 79 194 185
4 77 74 75 79
4 85 96 76 74
4 96 243 242 99
4 98 102 103 100
4 104 105 106 230
4 214 218 230 177
4 50 175 51 54
4 49 155 223 48
4 157 156 236 159
4 236 119 159 156
4 235 119 164 136
4 236 119 164 235
4 133 235 120 123
4 120 235 133 119
4 135 123 235 133
4 124 173 123 126
4 173 172 126 154
4 166 171 154 172
4 172 171 154 173
4 171 16 154 173
4 171 166 154 153
4 16 171 154 153
4 124 173 16 133
4 124 173 133 123
4 25 133 119 121
4 19 16 133 21
4 163 19 133 21
4 134 19 133 136
4 133 119 136 163
4 133 19 163 136
4 132 20 18 19
4 20 132 234 19
4 20 19 163 21
4 22 20 21 18
4 16 22 21 18
4 128 129 127 21
4 160 129 21 127
4 160 21 25 127
4 25 20 21 23
4 25 27 23 160
4 25 27 30 26
4 23 22 21 160
4 16 129 21 22
4 128 130 165 270
4 128 130 270 129
4 128 130 16 165
4 16 165 153 154
4 17 16 14 153
4 131 17 18 14
4 17 141 153 15
4 12 10 15 153
4 15 17 14 153
4 153 16 14 130
4 16 129 22 130
4 128 130 129 16
4 16 128 165 154
4 151 166 153 165
4 260 145 7 151
4 9 6 252 7
4 7 262 252 149
4 260 259 7 251
4 7 259 147 251
4 264 259 271 149
4 259 7 147 149
4 146 148 147 149
4 271 259 147 149
4 148 271 147 149
4 146 142 143 141
4 144 141 140 139
4 141 134 140 139
4 143 141 144 139
4 142 145 141 146
4 145 142 141 144
4 148 142 143 146
4 145 7 10 146
4 145 150 151 153
4 151 272 150 7
4 151 272 273 150
4 151 272 4 273
4 4 272 2 273
4 151 272 7 4
4 4 260 7 151
4 166 145 151 153
4 166 145 169 151
4 171 166 153 145
4 133 16 140 173
4 124 16 21 133
4 25 21 160 23
4 21 129 160 22
4 121 21 124 127
4 121 120 133 119
4 123 121 125 120
4 123 121 120 133
4 25 133 121 21
4 25 20 163 21
4 118 24 28 161
4 26 28 161 32
4 40 115 28 31
4 115 52 113 112
4 246 112 109 52
4 246 52 109 54
4 56 54 109 55
4 56 107 55 248
4 58 60 59 57
4 63 61 65 104
4 68 72 70 67
4 182 75 73 74
4 77 79 75 80
4 196 79 185 194
4 79 78 185 80
4 77 78 82 84
4 83 77 82 84
4 77 74 84 76
4 96 74 93 72
4 103 66 93 68
4 65 66 69 63
4 63 61 104 213
4 61 60 104 213
4 59 227 226 228
4 274 110 227 225
4 246 36 247 37
4 246 36 35 52
4 52 115 40 31
4 28 31 38 40
4 44 42 158 45
4 120 44 122 158
4 135 133 140 173
4 171 16 173 140
4 171 144 153 140
4 141 144 140 153
4 10 141 15 153
4 10 12 15 13
4 10 8 12 13
4 8 10 12 11
4 8 9 11 255
4 9 253 149 252
4 257 262 149 252
4 262 259 149 7
4 258 7 4 260
4 259 258 7 262
4 262 0 7 252
4 0 6 7 252
4 254 6 252 255
4 0 3 6 252
4 6 3 254 252
4 272 6 11 7
4 4 6 272 7
4 4 6 2 272
4 9 6 11 255
4 9 253 252 255
4 262 264 257 149
4 257 264 275 271
4 259 264 262 149
4 257 264 271 149
4 9 146 7 149
4 10 7 11 9
4 7 12 10 11
4 145 150 153 12
4 12 145 10 153
4 145 146 10 141
4 145 142 147 146
4 171 145 153 144
4 171 142 145 144
4 142 171 145 167
4 142 145 147 167
4 167 145 147 251
4 145 260 7 251
4 145 150 12 7
4 12 145 7 10
4 12 152 153 14
4 152 153 14 130
4 152 151 153 165
4 165 152 276 270
4 152 151 165 276
4 165 152 270 130
4 152 151 276 150
4 276 150 151 273
4 272 7 11 150
4 7 12 11 150
4 153 150 152 12
4 165 16 153 130
4 165 152 130 153
4 15 12 153 14
4 13 131 14 15
4 17 131 15 14
4 17 132 18 19
4 25 24 163 20
4 25 24 118 163
4 119 156 164 118
4 118 117 45 156
4 155 45 117 156
4 113 40 117 155
4 50 49 224 48
4 49 50 224 51
4 50 237 224 51
4 237 50 175 51
4 52 54 220 174
4 52 247 220 54
4 39 247 220 52
4 39 247 52 36
4 115 52 35 31
4 40 115 52 113
4 40 115 113 117
4 115 112 113 114
4 53 52 51 54
4 54 53 109 55
4 52 53 109 54
4 110 246 109 54
4 247 110 54 246
4 247 110 274 225
4 246 274 37 247
4 247 110 246 274
4 110 225 54 57
4 57 217 226 219
4 57 217 218 230
4 219 218 54 57
4 218 54 174 220
4 46 39 52 40
4 39 31 52 40
4 38 42 45 40
4 28 38 44 45
4 121 25 44 119
4 123 135 173 133
4 134 153 140 16
4 134 16 140 133
4 137 135 134 140
4 134 153 141 140
4 134 153 16 17
4 16 17 19 134
4 134 153 17 141
4 153 145 10 141
4 6 9 11 7
4 258 7 0 4
4 1 0 2 5

CELL_TYPES 734
10
10
10
10
10
10
10
10
10
10
10
10
10
10
10
10
10
10
10
10
10
10
10
10
10
10
10
10
10
10
10
10
10
10
10
10
10
10
10
10
10
10
10
10
10
10
10
10
10
10
10
10
10
10
10
10
10
10
10
10
10
10
10
10
10
10
10
10
10
10
10
10
10
10
10
10
10
10
10
10
10
10
10
10
10
10
10
10
10
10
10
10
10
10
10
10
10
10
10
10
10
10
10
10
10
10
10
10
10
10
10
10
10
10
10
10
10
10
10
10
10
10
10
10
10
10
10
10
10
10
10
10
10
10
10
10
10
10
10
10
10
10
10
10
10
10
10
10
10
10
10
10
10
10
10
10
10
10
10
10
10
10
10
10
10
10
10
10
10
10
10
10
10
10
10
10
10
10
10
10
10
10
10
10
10
10
10
10
10
10
10
10
10
10
10
10
10
10
10
10
10
10
10
10
10
10
10
10
10
10
10
10
10
10
10
10
10
10
10
10
10
10
10
10
10
10
10
10
10
10
10
10
10
10
10
10
10
10
10
10
10
10
10
10
10
10
10
10
10
10
10
10
10
10
10
10
10
10
10
10
10
10
10
10
10
10
10
10
10
10
10
10
10
10
10
10
10
10
10
10
10
10
10
10
10
10
10
10
10
10
10
10
10
10
10
10
10
10
10
10
10
10
10
10
10
10
10
10
10
10
10
10
10
10
10
10
10
10
10
10
10
10
10
10
10
10
10
10
10
10
10
10
10
10
10
10
10
10
10
10
10
10
10
10
10
10
10
10
10
10
10
10
10
10
10
10
10
10
10
10
10
10
10
10
10
10
10
10
10
10
10
10
10
10
10
10
10
10
10
10
10
10
10
10
10
10
10
10
10
10
10
10
10
10
10
10
10
10
10
10
10
10
10
10
10
10
10
10
10
10
10
10
10
10
10
10
10
10
10
10
10
10
10
10
10
10
10
10
10
10
10
10
10
10
10
10
10
10
10
10
10
10
10
10
10
10
10
10
10
10
10
10
10
10
10
10
10
10
10
10
10
10
10
10
10
10
10
10
10
10
10
10
10
10
10
10
10
10
10
10
10
10
10
10
10
10
10
10
10
10
10
10
10
10
10
10
10
10
10
10
10
10
10
10
10
10
10
10
10
10
10
10
10
10
10
10
10
10
10
10
10
10
10
10
10
10
10
10
10
10
10
10
10
10
10
10
10
10
10
10
10
10
10
10
10
10
10
10
10
10
10
10
10
10
10
10
10
10
10
10
10
10
10
10
10
10
10
10
10
10
10
10
10
10
10
10
10
10
10
10
10
10
10
10
10
10
10
10
10
10
10
10
10
10
10
10
10
10
10
10
10
10
10
10
10
10
10
10
10
10
10
10
10
10
10
10
10
10
10
10
10
10
10
10
10
10
10
10
10
10
10
10
10
10
10
10
10
10
10
10
10
10
10
10
10
10
10
10
10
10
10
10
10
10
10
10
10
10
10
10
10
10
10
10
10
10
10
10
10
10
10
10
10
10
10
10
10
10
10
10
10
10
10
10
10
10
10
10
10
10
10
10
10
10
10
10
10
10
10
10
10
10
10
10
10
10
10
10
10
10
10
10
10
10
10
10
10
10
10
10
10
10
10
10
10
10
10
10
10
10
10
10
10
10

CELL_DATA 734
SCALARS potentialEnergy FLOAT 1
LOOKUP_TABLE default
71.240112
63.275375
80.788185
212.991882
85.680031
119.621544
67.019627
112.987175
58.167480
53.493645
121.027695
62.469505
68.187527
40.085197
61.335918
53.239712
32.890646
94.772865
120.900719
40.243662
50.613731
36.059832
67.497585
40.759508
71.135815
75.170914
126.980782
53.736954
49.834751
132.184471
99.809639
54.008015
33.068630
215.312531
153.520615
104.908440
208.888626
69.509789
47.859535
91.233154
142.367828
76.786331
100.751144
66.359135
103.872910
173.382034
223.266586
194.651718
99.763817
67.002045
109.422478
121.970642
57.476822
100.589386
57.777409
107.499664
37.469765
71.206043
35.007385
34.327305
22.716213
30.578705
31.581148
84.684135
50.288967
28.967810
104.305672
92.406837
49.646893
68.541721
35.110281
45.918324
139.234161
116.064735
62.597309
61.236591
57.835552
51.786503
176.920181
54.132229
34.465803
24.480721
42.427727
99.789276
266.651642
179.026382
157.556671
174.778336
243.652481
271.188599
68.888931
60.091362
32.872478
101.242012
104.737701
38.574944
17.910787
81.516479
27.845436
61.372009
39.157124
49.443275
37.746582
73.580906
82.831146
43.739071
49.869484
49.416973
55.125427
59.612724
59.457123
46.921112
79.278938
61.406113
151.774460
179.174011
57.033112
28.953529
35.415091
78.360748
34.717791
42.577179
200.087387
127.773857
160.116364
202.105652
62.889999
43.202789
69.415249
54.438793
53.577988
46.014446
43.917511
57.856087
108.828873
105.201782
40.142822
105.883972
213.250336
45.976238
29.965704
42.421562
74.801178
85.259460
155.778381
118.785706
148.940720
72.616711
158.937546
151.521057
173.906860
105.509033
60.156769
31.963327
27.348267
88.168129
101.904060
187.974106
200.779114
174.343536
99.215302
95.940857
232.387100
70.161575
170.470078
40.475092
131.679871
124.223877
88.678673
193.343811
180.320908
92.061440
227.277756
135.643341
15.957173
76.134369
128.764435
81.731003
87.004265
27.468655
37.188227
75.251564
50.557350
45.784149
70.016094
90.876404
46.616104
21.972906
32.765306
58.566608
27.222370
26.460739
16.494827
144.081512
57.275066
182.340866
21.246463
106.777214
128.303871
39.145638
43.698917
62.829021
104.656235
167.645813
117.294868
98.752205
52.034122
50.371174
81.619446
36.985512
41.520281
52.934250
135.153664
71.093830
64.390526
120.772858
70.193481
52.778828
44.876354
49.184196
58.823147
31.383675
61.922234
56.325981
60.250942
37.306292
122.782562
139.996140
101.052666
99.806229
143.653320
39.166023
44.473522
40.450739
68.575073
29.206419
23.257463
59.386890
41.492006
75.396797
79.961624
87.962044
44.957737
29.910458
48.362514
99.033852
50.448917
84.227005
141.751892
161.792313
132.201180
68.619476
135.792900
68.073418
44.368755
50.427700
27.472485
52.370129
55.594646
92.143433
93.316765
53.059105
43.579174
84.582527
27.574263
22.873791
57.306019
34.275358
58.446686
152.517426
246.108231
67.663658
43.209354
70.561283
146.323181
140.337082
87.423500
39.346128
29.404615
69.818089
117.014626
163.958954
134.414253
177.017090
111.463341
143.460403
101.393028
129.409477
104.858330
98.985069
107.452187
82.561600
60.881927
87.904694
142.590057
126.821693
61.087811
31.837286
90.435989
64.912590
75.040558
80.949203
19.097045
79.902954
49.961872
101.093086
109.722977
80.701874
102.643768
82.145752
64.959888
58.629986
141.235077
38.083208
47.756126
21.845875
53.333870
22.379576
16.923080
24.158755
118.572395
101.140358
53.264874
58.276611
62.091145
56.049442
127.743431
115.013618
44.311302
39.180815
178.128555
116.692337
52.202972
92.059814
115.957306
88.360184
39.636295
109.013420
37.419823
119.098404
105.847969
153.705154
28.213961
104.175705
70.611870
196.348618
120.974724
179.038177
116.424149
68.614128
43.789337
52.984245
77.193298
50.317158
86.715324
69.531944
87.467415
110.386902
137.777214
270.865234
171.813217
100.535835
119.473854
95.665489
36.344769
40.166044
57.149803
48.869595
21.964773
52.922092
73.333130
43.716984
87.695381
242.601837
212.873581
76.346527
99.276550
85.164360
156.404251
18.363908
70.286083
200.279449
90.898407
131.226364
224.565781
35.147062
74.789032
58.367050
28.706451
41.625235
57.823254
22.096399
110.926453
68.417202
36.565447
93.383095
75.455208
36.808632
34.289473
91.755997
261.983231
39.080458
413.129547
287.608673
31.582783
97.630554
79.352119
43.993755
100.632111
275.320557
225.241531
139.166702
158.488266
21.430548
43.373203
50.551479
28.832785
65.233677
58.499653
21.493524
68.064732
89.219612
29.957062
210.881454
22.560589
83.056229
82.755325
150.645828
110.651421
102.472786
148.169571
72.219898
29.520147
58.547173
199.241959
132.435448
126.473221
115.141396
232.007202
135.539742
201.534134
116.385262
108.359505
131.741081
70.250443
74.533585
41.587271
95.796272
49.637779
147.804672
31.792440
119.761742
57.077847
192.199554
120.420532
49.297955
74.818672
32.770050
45.916367
44.234516
73.959904
14.944941
40.425442
49.243179
122.470497
46.990791
25.573728
65.864315
30.354103
71.880707
91.862236
36.850847
70.092098
33.210526
130.720062
65.583054
117.263985
89.334969
79.674042
43.091011
154.469406
34.542999
21.197046
20.022225
54.453957
74.190765
143.701370
201.143906
87.887383
97.934341
103.462563
50.777126
201.508255
96.252701
60.098988
207.091431
135.299217
141.496078
98.063896
67.620712
141.159698
68.624687
94.149475
102.798767
32.817663
42.022385
32.553677
16.379683
60.899044
45.518894
165.358902
17.256402
31.113386
25.063490
34.813801
52.669098
60.291340
127.435913
87.659630
181.142960
262.365219
170.782852
38.268953
57.098186
40.858673
18.412704
37.656788
29.846483
71.570210
49.940304
59.499458
49.372776
61.845387
88.348114
43.454163
22.579813
36.386009
34.459347
62.596439
48.118652
27.861622
37.840065
14.573262
195.539658
66.390842
106.136185
101.210594
138.488831
29.738863
102.775780
144.658020
98.415688
72.055153
32.042799
23.539083
193.332672
154.279953
254.653259
101.932602
53.601784
121.367531
110.197678
127.576149
160.296280
261.085144
255.179825
391.045166
118.979912
90.202141
76.762749
156.505966
197.823318
281.564209
153.423569
98.973434
214.859650
127.005493
154.162857
175.424683
152.389893
213.315536
169.974548
180.023178
229.331207
137.740761
66.908791
45.892906
23.572732
27.899576
79.380020
63.621311
39.284014
33.076965
112.541901
89.456314
64.439880
35.555832
59.177444
168.975861
85.033745
65.725380
51.865822
30.156710
68.900253
157.267380
45.023987
168.168777
76.074539
108.496017
190.772232
115.871712
101.529358
109.668602
49.399006
131.554115
44.628170
160.932312
104.723419
122.543938
25.291033
67.363743
151.732269
108.050896
75.705597
60.683651
45.733700
43.712708
145.013931
149.253510
208.508438
57.209557
166.292130
85.879326
91.153992
257.959961
148.650864
21.069311
105.991257
43.373604
103.012383
25.676720
74.180008
244.179886
605.039062
583.561951
117.592026
133.025520
261.447891
255.723373
115.056335
21.288491
26.584440
44.511898
52.193783
163.069138
310.217499
163.784973
163.343674
168.967834
174.629929
618.278442
86.173126
119.726517
164.531937
166.332733
198.153336
236.735428
139.203445
152.956604
131.538315
132.519180
292.820129
129.227257
155.673370
128.314880
178.872192
350.608032
109.606537
184.237366
178.258011
101.924400
386.546051
313.143250
86.403984
36.253805
32.578766
100.428024
61.208935
45.020016
62.060062
54.106800
55.542488
26.055248
31.786386
49.486958
27.867161
131.411842
53.442276
107.115646
99.516479
197.805115
94.182777
54.442776
64.795448
53.882710
74.518257
85.197754
35.925825
28.924578
19.729223
58.802494
15.831156
96.491409
40.891249
96.370735
108.237175
128.652328
39.922709
91.293411
50.516232
40.594387
34.410685
42.794819
169.883331
59.070045
61.761585
155.494965
97.193962
54.220776
80.929016
86.903030
302.947052
49.660301
58.111633

