# vtk DataFile Version 3.1
Tetrahedral Mesh Visualization
ASCII
DATASET UNSTRUCTURED_GRID

POINTS 277 FLOAT
0.000000 1.378113 1.754166
0.000000 0.000000 0.000000
2.000068 0.009922 0.013185
0.000000 1.666667 0.000000
2.424773 0.012006 1.748440
0.000000 0.000000 1.666667
1.691378 2.474954 0.005767
3.002373 2.469316 2.332858
3.990618 5.020217 0.004035
3.072368 5.015090 1.653777
5.207047 5.011998 1.601025
3.481649 3.194387 0.006196
5.394730 3.314109 -0.008541
5.991604 5.009596 -0.011721
7.356894 3.343620 -0.026311
6.967816 5.009193 1.302082
9.257521 2.179646 1.991727
8.698227 5.009785 1.573619
9.343362 3.338020 -0.036048
10.665193 4.994761 1.612957
11.337013 3.317955 -0.047768
11.115179 1.855297 1.511397
10.670915 1.662722 -0.047043
12.667684 1.643041 -0.050469
13.333651 3.301393 -0.056878
12.978466 1.850428 1.444450
14.669529 1.631772 -0.050790
13.999866 -0.026860 -0.043586
15.470693 2.116364 1.639916
15.342636 -0.025763 1.628190
13.340614 -0.022499 1.623922
17.299719 -0.031745 1.572142
16.660374 1.616481 -0.051383
17.987326 -0.051446 -0.047806
15.993418 -0.052204 -0.029967
18.656601 1.618744 -0.074250
19.005478 -0.032191 1.268005
19.983303 -0.048813 -0.058481
16.754524 -0.012214 3.268681
19.016512 -0.009416 3.061603
17.712065 2.672983 2.876115
18.023746 0.009166 4.956165
16.705744 1.669292 4.948372
16.015844 0.006144 4.962376
14.695271 -0.013333 3.291601
15.784110 2.872474 3.294375
18.755215 1.711670 4.934215
17.334684 3.345666 4.924141
19.301924 3.406420 4.904891
19.319225 4.997673 3.213982
21.006706 3.702679 4.878804
21.318169 5.002727 3.191177
19.627045 2.473895 2.268766
20.641747 4.981912 1.534201
21.910912 2.499557 2.362874
22.639822 4.992569 1.519555
23.261621 3.362058 -0.125842
23.966322 2.456761 2.175073
24.964279 3.668455 -0.143920
24.976021 1.872347 -0.122063
25.971666 2.522836 1.584633
27.232204 1.706266 -0.155103
26.673922 3.398360 -0.166491
29.271345 0.045281 1.466406
27.985474 0.016903 -0.134269
29.287825 1.692739 -0.174952
30.983004 0.055449 1.151479
31.989361 0.038857 -0.178859
31.292927 1.696528 -0.195006
29.985941 0.026983 -0.155325
33.258636 1.688322 -0.192860
33.986271 0.036271 -0.181586
32.677353 0.062677 1.437264
34.595638 0.062255 1.500769
34.994801 2.472645 2.332881
36.514187 0.062689 1.621890
35.160465 0.073982 3.194706
36.855183 0.075770 3.341223
38.312328 2.630651 4.780675
37.691872 2.239200 1.971711
38.319153 0.075874 2.331564
38.002869 0.048548 -0.188774
38.028706 0.093874 4.790664
36.030849 0.089585 4.798227
36.583157 1.839391 4.784434
34.957047 1.428833 4.797031
34.866039 3.225494 4.790540
36.769024 3.577095 4.771341
34.008228 5.094985 4.768189
32.707920 3.407320 4.791430
33.271244 5.080015 3.115844
32.000404 5.107070 4.759945
35.152042 5.075899 3.157531
32.204185 2.676195 2.224773
34.578609 5.052880 1.456924
32.614723 3.362364 -0.214172
33.222420 0.084109 3.135539
30.997515 0.084058 2.943794
31.335833 1.768327 4.812056
33.267506 1.710233 4.803229
30.683098 3.438590 4.785845
28.675621 3.435288 4.789827
29.350372 1.773539 4.814721
30.019766 2.568078 2.276258
27.957008 2.542542 2.292417
26.678474 3.424774 4.815175
27.349009 1.758964 4.832222
24.634712 5.015772 1.499576
21.967823 4.965907 -0.145306
21.308584 3.304656 -0.113023
22.716013 1.660359 -0.098963
19.972641 4.957975 -0.128476
19.316332 3.286040 -0.098304
18.649813 4.975700 1.551790
17.978878 4.950018 -0.111248
17.320715 3.284004 -0.076185
15.986069 4.964624 -0.083078
16.656704 4.975608 1.578338
14.660668 4.974244 1.605363
13.697562 2.944667 3.220207
13.010384 1.314578 4.954536
12.680854 -0.010295 3.290365
14.012100 -0.003730 4.966336
11.290039 1.610437 4.955391
10.671124 -0.002478 3.293484
12.011321 -0.009483 4.955475
10.014327 -0.006343 4.960928
11.329423 -0.008094 1.625889
9.309239 0.006840 1.632580
9.993205 0.007314 -0.042145
8.682384 1.675742 -0.036856
7.999544 5.011133 -0.030999
10.008548 4.998733 -0.042234
11.227255 2.637187 3.238394
9.257510 5.001915 3.259257
10.742774 3.308483 4.950357
11.318201 4.993369 3.279607
10.002618 4.998250 4.954170
12.002522 4.995938 4.949839
8.009363 5.000850 4.964437
8.745760 3.385395 4.958807
6.970927 5.007967 3.085081
5.369029 3.370692 4.983659
6.013258 4.999889 4.984572
7.039712 3.680520 4.970599
5.149833 2.376484 3.126445
4.629505 5.009470 3.285658
3.496395 3.198384 4.997577
4.009562 5.003318 4.997515
2.370258 5.009776 3.287163
4.833295 1.615324 -0.000929
4.905659 0.003102 1.876042
6.718211 1.667180 -0.027634
7.015300 2.568042 2.163854
8.661980 0.004960 3.305152
17.326593 4.994081 3.241193
15.330775 4.978266 3.272514
16.011621 4.996675 4.932329
14.728168 1.606022 4.950382
15.282603 3.292169 4.946464
11.996117 -0.014372 -0.042515
15.327601 3.295740 -0.060247
14.000292 4.971668 -0.060547
12.665049 4.976812 1.613281
13.331783 4.987001 3.280562
7.239849 0.012401 1.665466
6.678535 0.003941 3.359359
4.922356 1.653354 4.991323
6.015773 0.006042 4.986708
4.921302 0.009552 3.658679
4.015569 0.006305 5.000711
7.060641 1.887100 4.974741
8.015242 -0.000154 4.968197
9.289377 1.687010 4.965703
21.018515 1.907025 4.902823
22.714483 3.433203 4.870168
23.998318 5.056727 4.834764
24.674831 3.410122 4.846426
23.316547 5.021247 3.178342
27.321390 5.063632 3.114279
26.633432 5.036296 1.467894
25.318457 5.047794 3.148974
35.147377 1.638777 -0.198651
36.829178 1.492464 -0.204756
40.005257 3.344482 3.390515
40.003593 1.714114 2.386520
38.294201 5.077744 2.279822
39.997303 3.324308 1.664495
39.991936 5.095167 3.070709
37.990238 5.121194 4.741053
39.989491 5.129941 4.737312
40.010647 3.457231 4.758973
40.014614 1.779676 4.787761
40.016464 0.092634 3.134097
40.014061 0.072570 1.468493
40.003677 0.051235 -0.195226
39.999470 1.717390 -0.211773
39.978519 3.377086 -0.239521
38.295872 2.514271 -0.217205
37.976013 5.042874 -0.249180
39.994915 5.061131 1.401761
36.829693 5.084504 3.294560
36.491940 5.058846 1.566969
36.494167 3.213632 -0.228220
35.974976 5.028072 -0.254261
34.575920 3.331357 -0.219038
33.981888 5.031639 -0.234300
30.629761 3.360947 -0.215256
29.970140 5.019494 -0.237156
31.980448 5.030874 -0.237480
30.637474 5.054613 1.424373
28.633945 3.358660 -0.200246
26.740259 0.054744 3.261406
27.261894 0.028751 1.558794
25.337685 1.746051 4.867179
24.034975 0.057351 4.915116
26.035151 0.079349 4.888628
25.021759 0.043369 3.581939
23.283916 1.745621 4.891731
23.293072 0.019691 3.305310
21.282042 -0.006528 3.237218
22.030939 0.031885 4.923078
20.023960 0.017769 4.939770
18.007065 5.011563 4.903737
20.005577 5.015844 4.876890
22.737478 -0.016915 1.614331
25.002232 0.006307 1.796796
23.989298 -0.030460 -0.078825
25.982687 -0.010845 -0.106605
25.950321 4.998158 -0.187365
25.708336 2.286820 3.343832
28.637646 5.042936 1.435141
27.958435 5.010121 -0.217318
26.006697 5.082254 4.800190
12.008334 4.981862 -0.047079
13.003670 3.103501 4.951741
14.007157 4.979611 4.946638
21.995234 5.032423 4.856096
28.746433 0.070801 3.162262
29.318344 5.074484 3.094104
30.002825 5.108051 4.756372
31.307999 5.085071 3.092516
32.028671 0.113434 4.832126
34.026928 0.102644 4.818317
36.006248 5.088962 4.765074
32.623562 5.062244 1.433453
20.665720 1.630094 -0.092082
20.726564 -0.021946 1.546079
23.957539 4.978145 -0.164477
28.005938 5.103793 4.768996
39.974430 5.043015 -0.266962
3.189994 1.476362 5.008398
0.000000 3.103853 1.750106
0.000000 5.000000 1.666667
0.000000 3.333333 0.000000
1.998862 5.012204 0.002531
0.000000 5.000000 0.000000
0.000000 5.000000 3.333333
0.000000 0.000000 3.333333
1.700112 2.478306 5.004110
3.042237 0.018391 3.402500
2.001880 0.013343 5.006963
0.000000 2.403264 3.370902
0.000000 1.666667 5.000000
0.000000 3.333333 5.000000
0.000000 0.000000 5.000000
28.031473 0.092956 4.855990
30.032848 0.115986 4.842626
35.990379 0.035132 -0.193205
40.026661 0.114405 4.807253
7.993382 0.018639 -0.034916
2.001653 5.010238 5.004321
3.158354 1.466801 0.009617
3.996048 0.012045 0.000417
21.986317 -0.046007 -0.067176
0.000000 5.000000 5.000000
5.991892 0.017428 -0.020182

CELLS 734 3670
4 0 1 2 3
4 0 4 2 5
4 0 3 2 6
4 4 6 0 2
4 4 6 7 0
4 8 9 10 11
4 12 13 14 15
4 16 17 14 18
4 19 20 18 21
4 20 22 21 23
4 24 25 26 23
4 25 27 26 23
4 26 28 29 30
4 28 29 31 32
4 33 34 32 31
4 31 33 35 32
4 31 33 36 35
4 33 37 36 35
4 38 39 40 31
4 41 42 43 38
4 44 42 45 38
4 44 42 38 43
4 46 38 42 41
4 46 47 40 48
4 49 50 51 52
4 53 54 51 55
4 56 54 55 57
4 56 58 59 57
4 60 59 61 62
4 63 61 64 65
4 66 67 68 69
4 67 70 71 72
4 73 74 75 76
4 74 77 75 76
4 77 78 79 80
4 79 81 75 80
4 77 78 80 82
4 77 83 76 84
4 83 85 76 84
4 85 86 74 84
4 74 86 87 84
4 88 89 86 90
4 91 89 88 90
4 86 88 90 92
4 90 86 92 74
4 86 89 74 90
4 93 94 95 74
4 70 74 72 93
4 70 73 71 72
4 74 96 73 72
4 66 97 93 72
4 96 97 72 93
4 96 98 97 93
4 85 96 74 99
4 96 98 93 99
4 98 89 100 93
4 101 102 100 103
4 104 105 101 106
4 107 58 57 60
4 58 107 57 56
4 53 108 109 55
4 56 110 109 54
4 53 111 109 108
4 112 53 109 52
4 111 112 113 53
4 112 111 113 114
4 115 116 114 117
4 40 28 115 117
4 45 117 118 28
4 119 28 25 44
4 120 44 121 122
4 123 121 124 125
4 125 123 126 124
4 127 128 21 124
4 16 129 128 21
4 16 18 14 130
4 16 17 18 19
4 131 17 132 18
4 16 19 18 21
4 133 16 19 134
4 135 134 133 136
4 135 137 136 138
4 137 134 139 140
4 141 142 143 144
4 145 146 147 7
4 142 148 147 146
4 7 146 147 149
4 10 7 9 146
4 145 150 7 151
4 152 151 150 153
4 16 128 154 124
4 124 21 121 133
4 25 28 30 44
4 28 38 45 40
4 45 47 40 42
4 155 45 156 47
4 157 156 47 155
4 155 45 40 117
4 45 42 158 159
4 44 42 43 158
4 119 45 158 159
4 120 44 158 119
4 25 127 21 121
4 25 27 160 30
4 127 25 160 30
4 25 127 121 30
4 44 25 121 30
4 28 30 44 29
4 119 28 44 45
4 119 28 118 25
4 28 24 26 161
4 26 32 29 28
4 28 31 29 38
4 46 38 41 39
4 46 38 39 40
4 28 117 40 45
4 118 28 117 161
4 162 24 118 161
4 118 119 163 164
4 136 119 164 163
4 25 133 21 163
4 128 16 21 124
4 165 166 153 154
4 166 167 168 169
4 167 168 169 170
4 171 168 172 166
4 124 173 126 154
4 123 121 133 124
4 120 125 122 121
4 122 158 44 43
4 47 46 40 42
4 52 50 174 48
4 175 50 174 54
4 176 175 177 178
4 179 60 180 181
4 64 69 63 65
4 68 72 67 66
4 70 73 182 71
4 74 79 183 75
4 184 78 185 79
4 79 184 186 187
4 186 184 188 187
4 184 189 190 191
4 184 78 79 186
4 78 189 184 191
4 189 184 190 188
4 184 78 191 192
4 184 78 192 185
4 192 78 80 185
4 193 80 194 185
4 195 81 196 194
4 81 79 196 194
4 197 187 196 198
4 187 79 185 196
4 79 184 187 185
4 197 199 187 198
4 199 197 187 200
4 199 200 187 186
4 78 201 79 186
4 189 201 87 78
4 202 201 79 74
4 201 74 92 87
4 201 202 92 74
4 201 202 79 186
4 202 203 74 79
4 202 198 203 79
4 204 202 199 203
4 202 203 205 74
4 202 204 205 203
4 182 203 74 205
4 74 203 183 79
4 79 203 183 198
4 79 81 198 183
4 81 79 198 196
4 187 79 196 198
4 202 198 79 186
4 202 204 94 205
4 94 95 205 206
4 207 208 209 210
4 208 207 211 210
4 104 103 211 65
4 104 60 212 213
4 214 215 216 217
4 218 219 220 221
4 222 174 220 221
4 46 39 222 174
4 52 46 40 48
4 40 49 52 48
4 53 49 52 113
4 40 49 155 113
4 155 45 47 40
4 157 47 223 155
4 49 223 224 48
4 52 50 51 54
4 175 54 57 178
4 218 175 54 57
4 225 219 54 57
4 218 175 57 177
4 57 217 219 218
4 219 225 226 57
4 225 227 226 57
4 59 110 57 227
4 59 60 61 228
4 61 60 213 228
4 64 61 213 228
4 63 61 213 64
4 61 104 211 65
4 180 60 104 62
4 58 229 62 180
4 58 60 180 62
4 60 61 104 62
4 60 226 230 212
4 226 60 213 212
4 60 104 212 230
4 179 60 230 104
4 104 211 231 62
4 180 229 62 232
4 180 232 62 231
4 179 60 104 180
4 233 181 105 179
4 181 105 179 230
4 105 214 106 230
4 105 214 230 177
4 215 214 218 217
4 215 217 218 219
4 218 215 219 221
4 218 175 174 54
4 39 52 220 174
4 39 46 52 174
4 115 52 112 35
4 28 115 117 161
4 162 118 116 161
4 24 162 118 163
4 20 19 234 163
4 25 133 163 119
4 120 119 158 235
4 236 119 235 159
4 235 119 158 159
4 119 235 133 136
4 138 235 236 164
4 45 47 42 159
4 46 38 40 42
4 49 50 52 48
4 237 175 176 178
4 181 233 177 176
4 180 179 231 104
4 207 103 65 211
4 207 103 68 65
4 65 66 103 68
4 103 66 97 93
4 66 103 97 63
4 213 104 63 238
4 238 97 103 63
4 104 102 103 238
4 104 106 212 230
4 214 212 106 230
4 214 212 216 106
4 214 212 217 216
4 214 212 230 217
4 226 217 230 212
4 226 60 230 57
4 181 60 57 230
4 179 105 104 230
4 179 105 101 104
4 104 239 103 101
4 239 101 240 100
4 91 241 240 100
4 241 239 240 100
4 239 241 103 100
4 103 210 93 241
4 103 207 93 210
4 210 103 231 239
4 103 239 104 231
4 103 104 63 65
4 65 66 63 103
4 65 66 68 69
4 68 72 66 93
4 96 98 242 97
4 85 96 99 243
4 85 86 99 74
4 86 89 99 74
4 88 86 244 92
4 74 86 92 87
4 201 244 87 92
4 244 86 87 92
4 90 74 92 94
4 94 95 206 245
4 95 209 206 245
4 245 207 95 209
4 208 232 231 211
4 180 104 231 62
4 181 60 107 57
4 54 175 51 178
4 50 52 174 54
4 246 36 52 247
4 246 36 37 35
4 52 31 36 35
4 31 39 52 36
4 39 46 222 41
4 39 222 174 220
4 174 218 220 221
4 218 219 54 220
4 225 219 220 54
4 56 110 54 57
4 110 56 59 57
4 60 59 226 228
4 60 226 213 228
4 57 217 230 226
4 214 217 230 218
4 218 57 230 177
4 181 105 230 177
4 179 60 181 230
4 58 107 180 60
4 229 107 58 248
4 229 107 180 58
4 60 58 59 62
4 58 107 56 248
4 108 56 109 55
4 108 56 55 248
4 107 56 55 57
4 107 181 57 178
4 57 181 177 178
4 181 176 177 178
4 233 181 177 105
4 249 239 101 240
4 91 89 241 100
4 89 91 241 90
4 210 245 93 241
4 245 241 90 93
4 93 94 90 245
4 74 202 92 94
4 205 204 94 206
4 202 198 199 203
4 202 198 186 199
4 199 197 200 250
4 199 186 187 198
4 200 186 188 187
4 184 189 186 188
4 201 189 87 244
4 189 201 78 186
4 201 78 79 87
4 189 78 184 186
4 186 79 187 198
4 74 201 79 87
4 74 79 84 87
4 79 78 84 87
4 77 78 84 79
4 74 77 84 79
4 74 85 84 76
4 83 243 76 85
4 85 96 243 76
4 73 96 74 76
4 96 93 74 99
4 89 93 99 74
4 93 94 74 90
4 93 94 245 95
4 207 95 68 93
4 95 70 68 93
4 95 70 74 205
4 74 70 182 205
4 94 95 74 205
4 241 89 90 93
4 104 179 231 239
4 181 60 180 107
4 107 57 55 178
4 57 54 55 178
4 53 49 51 52
4 40 49 113 52
4 155 47 223 48
4 45 47 159 156
4 119 156 45 159
4 120 44 119 121
4 16 173 124 154
4 166 167 169 145
4 145 7 147 251
4 9 7 252 149
4 253 254 252 255
4 256 253 255 254
4 6 9 252 255
4 253 257 149 252
4 7 258 259 260
4 260 261 251 170
4 169 260 251 170
4 169 251 167 170
4 166 167 145 171
4 16 22 18 130
4 25 24 20 23
4 24 25 118 28
4 119 156 118 45
4 119 28 45 118
4 119 45 44 158
4 44 38 28 29
4 25 28 26 30
4 25 24 26 28
4 24 20 234 163
4 162 24 234 163
4 163 119 118 25
4 235 135 133 136
4 135 134 140 133
4 145 141 153 144
4 145 260 169 151
4 0 258 4 5
4 259 258 262 263
4 264 259 262 263
4 258 7 262 0
4 260 258 259 261
4 258 261 263 259
4 261 258 263 265
4 261 260 251 259
4 167 251 169 145
4 145 260 251 169
4 166 167 171 168
4 16 171 153 140
4 137 135 136 134
4 138 135 235 136
4 235 138 136 164
4 236 119 156 164
4 157 156 159 47
4 155 47 48 40
4 40 49 48 155
4 46 52 174 48
4 247 225 220 54
4 110 225 57 227
4 60 59 57 226
4 104 61 211 62
4 232 211 62 231
4 103 104 211 231
4 239 210 103 241
4 241 93 103 100
4 68 72 93 70
4 103 207 68 93
4 207 103 211 210
4 210 208 231 211
4 103 210 231 211
4 245 207 210 93
4 245 207 209 210
4 245 207 93 95
4 70 95 74 93
4 70 73 74 182
4 182 203 183 74
4 202 74 205 94
4 93 89 90 74
4 89 241 100 93
4 93 98 103 100
4 101 104 102 103
4 104 101 102 106
4 106 238 104 212
4 266 216 212 106
4 106 238 212 266
4 106 238 102 104
4 267 266 238 102
4 97 102 267 238
4 106 238 266 102
4 97 102 238 103
4 97 102 103 98
4 97 102 98 267
4 97 98 242 267
4 96 98 99 242
4 89 98 99 93
4 239 101 100 103
4 104 179 239 101
4 179 249 239 101
4 105 179 101 249
4 233 105 249 179
4 177 181 57 230
4 175 57 177 178
4 175 237 51 178
4 55 54 51 178
4 112 111 109 53
4 112 53 52 113
4 117 115 113 114
4 116 118 117 161
4 115 116 117 161
4 28 115 161 32
4 29 32 26 34
4 26 30 29 27
4 34 26 29 27
4 29 34 31 32
4 31 115 32 35
4 31 115 28 32
4 246 112 52 35
4 246 247 52 54
4 247 110 225 54
4 59 227 57 226
4 213 104 238 212
4 104 103 63 238
4 97 98 103 93
4 70 73 72 74
4 71 182 268 73
4 182 75 268 73
4 182 75 183 268
4 183 81 268 75
4 182 75 74 183
4 79 81 183 75
4 79 81 80 194
4 78 192 80 82
4 192 193 80 82
4 269 193 192 82
4 193 192 80 185
4 80 79 194 185
4 77 74 75 79
4 85 96 76 74
4 96 243 242 99
4 98 102 103 100
4 104 105 106 230
4 214 218 230 177
4 50 175 51 54
4 49 155 223 48
4 157 156 236 159
4 236 119 159 156
4 235 119 164 136
4 236 119 164 235
4 133 235 120 123
4 120 235 133 119
4 135 123 235 133
4 124 173 123 126
4 173 172 126 154
4 166 171 154 172
4 172 171 154 173
4 171 16 154 173
4 171 166 154 153
4 16 171 154 153
4 124 173 16 133
4 124 173 133 123
4 25 133 119 121
4 19 16 133 21
4 163 19 133 21
4 134 19 133 136
4 133 119 136 163
4 133 19 163 136
4 132 20 18 19
4 20 132 234 19
4 20 19 163 21
4 22 20 21 18
4 16 22 21 18
4 128 129 127 21
4 160 129 21 127
4 160 21 25 127
4 25 20 21 23
4 25 27 23 160
4 25 27 30 26
4 23 22 21 160
4 16 129 21 22
4 128 130 165 270
4 128 130 270 129
4 128 130 16 165
4 16 165 153 154
4 17 16 14 153
4 131 17 18 14
4 17 141 153 15
4 12 10 15 153
4 15 17 14 153
4 153 16 14 130
4 16 129 22 130
4 128 130 129 16
4 16 128 165 154
4 151 166 153 165
4 260 145 7 151
4 9 6 252 7
4 7 262 252 149
4 260 259 7 251
4 7 259 147 251
4 264 259 271 149
4 259 7 147 149
4 146 148 147 149
4 271 259 147 149
4 148 271 147 149
4 146 142 143 141
4 144 141 140 139
4 141 134 140 139
4 143 141 144 139
4 142 145 141 146
4 145 142 141 144
4 148 142 143 146
4 145 7 10 146
4 145 150 151 153
4 151 272 150 7
4 151 272 273 150
4 151 272 4 273
4 4 272 2 273
4 151 272 7 4
4 4 260 7 151
4 166 145 151 153
4 166 145 169 151
4 171 166 153 145
4 133 16 140 173
4 124 16 21 133
4 25 21 160 23
4 21 129 160 22
4 121 21 124 127
4 121 120 133 119
4 123 121 125 120
4 123 121 120 133
4 25 133 121 21
4 25 20 163 21
4 118 24 28 161
4 26 28 161 32
4 40 115 28 31
4 115 52 113 112
4 246 112 109 52
4 246 52 109 54
4 56 54 109 55
4 56 107 55 248
4 58 60 59 57
4 63 61 65 104
4 68 72 70 67
4 182 75 73 74
4 77 79 75 80
4 196 79 185 194
4 79 78 185 80
4 77 78 82 84
4 83 77 82 84
4 77 74 84 76
4 96 74 93 72
4 103 66 93 68
4 65 66 69 63
4 63 61 104 213
4 61 60 104 213
4 59 227 226 228
4 274 110 227 225
4 246 36 247 37
4 246 36 35 52
4 52 115 40 31
4 28 31 38 40
4 44 42 158 45
4 120 44 122 158
4 135 133 140 173
4 171 16 173 140
4 171 144 153 140
4 141 144 140 153
4 10 141 15 153
4 10 12 15 13
4 10 8 12 13
4 8 10 12 11
4 8 9 11 255
4 9 253 149 252
4 257 262 149 252
4 262 259 149 7
4 258 7 4 260
4 259 258 7 262
4 262 0 7 252
4 0 6 7 252
4 254 6 252 255
4 0 3 6 252
4 6 3 254 252
4 272 6 11 7
4 4 6 272 7
4 4 6 2 272
4 9 6 11 255
4 9 253 252 255
4 262 264 257 149
4 257 264 275 271
4 259 264 262 149
4 257 264 271 149
4 9 146 7 149
4 10 7 11 9
4 7 12 10 11
4 145 150 153 12
4 12 145 10 153
4 145 146 10 141
4 145 142 147 146
4 171 145 153 144
4 171 142 145 144
4 142 171 145 167
4 142 145 147 167
4 167 145 147 251
4 145 260 7 251
4 145 150 12 7
4 12 145 7 10
4 12 152 153 14
4 152 153 14 130
4 152 151 153 165
4 165 152 276 270
4 152 151 165 276
4 165 152 270 130
4 152 151 276 150
4 276 150 151 273
4 272 7 11 150
4 7 12 11 150
4 153 150 152 12
4 165 16 153 130
4 165 152 130 153
4 15 12 153 14
4 13 131 14 15
4 17 131 15 14
4 17 132 18 19
4 25 24 163 20
4 25 24 118 163
4 119 156 164 118
4 118 117 45 156
4 155 45 117 156
4 113 40 117 155
4 50 49 224 48
4 49 50 224 51
4 50 237 224 51
4 237 50 175 51
4 52 54 220 174
4 52 247 220 54
4 39 247 220 52
4 39 247 52 36
4 115 52 35 31
4 40 115 52 113
4 40 115 113 117
4 115 112 113 114
4 53 52 51 54
4 54 53 109 55
4 52 53 109 54
4 110 246 109 54
4 247 110 54 246
4 247 110 274 225
4 246 274 37 247
4 247 110 246 274
4 110 225 54 57
4 57 217 226 219
4 57 217 218 230
4 219 218 54 57
4 218 54 174 220
4 46 39 52 40
4 39 31 52 40
4 38 42 45 40
4 28 38 44 45
4 121 25 44 119
4 123 135 173 133
4 134 153 140 16
4 134 16 140 133
4 137 135 134 140
4 134 153 141 140
4 134 153 16 17
4 16 17 19 134
4 134 153 17 141
4 153 145 10 141
4 6 9 11 7
4 258 7 0 4
4 1 0 2 5

CELL_TYPES 734
10
10
10
10
10
10
10
10
10
10
10
10
10
10
10
10
10
10
10
10
10
10
10
10
10
10
10
10
10
10
10
10
10
10
10
10
10
10
10
10
10
10
10
10
10
10
10
10
10
10
10
10
10
10
10
10
10
10
10
10
10
10
10
10
10
10
10
10
10
10
10
10
10
10
10
10
10
10
10
10
10
10
10
10
10
10
10
10
10
10
10
10
10
10
10
10
10
10
10
10
10
10
10
10
10
10
10
10
10
10
10
10
10
10
10
10
10
10
10
10
10
10
10
10
10
10
10
10
10
10
10
10
10
10
10
10
10
10
10
10
10
10
10
10
10
10
10
10
10
10
10
10
10
10
10
10
10
10
10
10
10
10
10
10
10
10
10
10
10
10
10
10
10
10
10
10
10
10
10
10
10
10
10
10
10
10
10
10
10
10
10
10
10
10
10
10
10
10
10
10
10
10
10
10
10
10
10
10
10
10
10
10
10
10
10
10
10
10
10
10
10
10
10
10
10
10
10
10
10
10
10
10
10
10
10
10
10
10
10
10
10
10
10
10
10
10
10
10
10
10
10
10
10
10
10
10
10
10
10
10
10
10
10
10
10
10
10
10
10
10
10
10
10
10
10
10
10
10
10
10
10
10
10
10
10
10
10
10
10
10
10
10
10
10
10
10
10
10
10
10
10
10
10
10
10
10
10
10
10
10
10
10
10
10
10
10
10
10
10
10
10
10
10
10
10
10
10
10
10
10
10
10
10
10
10
10
10
10
10
10
10
10
10
10
10
10
10
10
10
10
10
10
10
10
10
10
10
10
10
10
10
10
10
10
10
10
10
10
10
10
10
10
10
10
10
10
10
10
10
10
10
10
10
10
10
10
10
10
10
10
10
10
10
10
10
10
10
10
10
10
10
10
10
10
10
10
10
10
10
10
10
10
10
10
10
10
10
10
10
10
10
10
10
10
10
10
10
10
10
10
10
10
10
10
10
10
10
10
10
10
10
10
10
10
10
10
10
10
10
10
10
10
10
10
10
10
10
10
10
10
10
10
10
10
10
10
10
10
10
10
10
10
10
10
10
10
10
10
10
10
10
10
10
10
10
10
10
10
10
10
10
10
10
10
10
10
10
10
10
10
10
10
10
10
10
10
10
10
10
10
10
10
10
10
10
10
10
10
10
10
10
10
10
10
10
10
10
10
10
10
10
10
10
10
10
10
10
10
10
10
10
10
10
10
10
10
10
10
10
10
10
10
10
10
10
10
10
10
10
10
10
10
10
10
10
10
10
10
10
10
10
10
10
10
10
10
10
10
10
10
10
10
10
10
10
10
10
10
10
10
10
10
10
10
10
10
10
10
10
10
10
10
10
10
10
10
10
10
10
10
10
10
10
10
10
10
10
10
10
10
10
10
10
10
10
10
10
10
10
10
10
10
10
10
10
10
10
10
10
10
10
10
10
10
10
10
10
10
10
10
10
10
10
10
10
10
10
10
10
10
10
10
10
10
10
10
10
10
10
10
10
10
10
10
10
10
10
10
10
10
10
10
10
10
10
10
10
10
10
10
10
10
10
10
10
10
10
10
10
10
10
10
10
10
10
10
10
10
10
10
10
10
10
10
10
10
10
10
10
10
10
10
10
10
10
10
10
10
10
10
10
10
10
10

CELL_DATA 734
SCALARS potentialEnergy FLOAT 1
LOOKUP_TABLE default
47.986454
79.104080
133.072159
80.181808
89.053864
90.152489
40.223583
219.903000
97.617813
130.286034
60.286213
61.551498
201.513245
57.422482
55.554359
35.280174
63.801567
42.412651
49.120804
90.446114
119.554153
61.276463
27.265377
42.347103
59.994003
83.774483
93.265114
58.658867
157.530823
141.507172
32.881540
79.824333
64.883976
32.791018
211.069183
111.925415
161.776245
41.610340
38.570662
70.637329
51.142483
101.271248
181.277084
83.081177
129.281059
212.164246
251.223846
154.746460
39.601294
81.371025
83.055283
59.115761
104.087616
205.565567
75.609650
156.188812
52.872238
89.887245
136.492432
115.271576
66.143738
67.078171
38.396748
53.613228
47.158665
48.736385
213.160675
59.895271
139.400162
76.152641
62.561485
21.998635
30.474091
77.325272
53.104168
40.224913
73.889523
67.886631
62.557148
137.326874
51.414848
35.155045
44.399185
47.330227
135.450226
133.014847
136.315376
27.729387
124.051949
135.911179
38.612892
53.803864
68.013206
30.866434
18.716965
115.205162
144.522293
87.934227
103.485481
89.080345
44.776100
108.045753
74.735588
65.549980
69.734192
57.447342
41.586576
101.578918
45.531467
49.440174
70.761215
185.102356
49.550457
38.704765
26.326998
32.756931
122.983978
51.616982
68.241154
44.615841
79.380875
70.218880
67.997227
50.864033
71.029060
67.380188
25.999739
54.786045
42.091759
45.221741
12.644296
63.434845
83.690933
66.314922
376.454529
15.598049
46.893883
66.931156
153.032578
42.774364
62.719402
29.803183
248.809265
52.040745
121.641479
91.799057
135.377190
124.691727
163.607422
46.380276
81.311874
86.245415
128.192589
16.888412
24.800630
136.007812
98.845062
173.323486
100.539352
100.507080
67.723278
40.683372
59.915176
166.745895
86.052689
53.417202
93.784035
33.799227
39.585030
36.553610
37.650640
46.090824
54.663391
126.668808
73.946831
88.929077
38.583879
71.491570
117.771057
33.858557
78.694313
99.211906
46.071976
65.906025
98.735748
54.824833
30.036583
109.601761
109.166458
168.044952
28.776495
64.404903
115.212593
43.462086
57.174488
20.183221
47.960239
157.301590
41.660629
51.929966
76.678513
96.270828
94.286499
175.296722
132.731560
40.931984
108.488159
206.825211
26.194370
122.039612
108.242859
118.678940
148.632248
121.088120
137.967415
146.510727
73.142624
66.078911
119.294296
77.093544
97.276695
66.904015
100.387581
41.680323
20.820774
58.577347
105.677956
51.319210
49.279739
53.020752
108.163155
171.412857
65.674393
33.885239
80.734779
63.487690
124.087509
155.791611
27.196079
69.613811
123.989403
11.366750
64.139191
48.433578
123.627251
126.617546
40.970049
42.759876
56.924473
92.594887
77.333298
65.434692
115.745308
83.386688
127.153427
84.505577
43.392448
30.922438
128.126030
93.472908
85.582382
94.868019
120.911438
140.994141
64.978203
24.597404
103.920166
45.667461
89.146667
89.989021
92.864738
57.496075
46.837112
126.958183
39.602674
30.420547
93.589104
55.288109
61.527336
137.330246
148.538879
82.488914
47.961147
58.021027
63.734905
175.158829
74.057457
128.025368
47.478550
92.685478
168.275131
141.878601
70.759167
57.812172
35.822498
69.606289
46.994865
86.708717
30.290834
39.991274
67.693218
119.294891
123.083282
50.942722
44.463516
150.488770
189.739822
93.872330
82.390457
82.431023
131.752785
120.047829
121.213135
64.211319
17.527004
78.528885
28.329220
26.406662
79.562675
138.700989
144.389633
153.622498
74.580002
82.555717
46.946102
96.356735
109.576431
92.000587
164.988495
188.576462
79.180611
63.698616
54.362560
65.636551
41.065834
40.254471
88.376358
84.142799
168.032059
112.015053
83.632767
134.025246
62.124241
77.166679
195.247055
89.190247
122.994652
100.117500
52.424110
97.693031
58.994781
87.708984
131.646805
133.143814
198.281265
201.510422
101.178619
107.238106
99.220764
98.403763
189.170395
229.530762
85.158516
126.460365
89.003662
54.500706
76.549088
111.482925
52.777653
84.722427
46.725845
89.060020
60.143055
104.327179
140.355606
125.175491
44.124138
38.730040
110.539330
31.706919
159.838989
190.685822
79.631355
60.642384
77.366531
47.423809
51.371212
117.264084
59.547085
40.319225
49.171764
74.987892
51.656197
83.946655
34.614618
73.560741
110.964096
24.631127
96.478668
98.625015
48.330185
123.254150
45.443768
34.407778
104.852531
108.196541
42.290859
65.344151
60.559254
99.907295
148.954239
57.073772
154.392441
60.544067
39.556780
38.548632
82.173309
205.968079
25.634891
85.031433
45.700527
94.683769
54.418591
159.085541
115.591743
47.773418
74.401535
45.277569
57.928234
131.773720
89.074333
93.853226
46.317665
67.053024
141.066910
55.673435
130.342400
314.233795
104.537506
132.823891
80.196030
143.155136
180.305328
47.388710
61.082191
18.206062
168.993729
55.605900
54.319359
39.101976
47.813431
44.192886
66.128345
58.480297
174.835541
94.164543
57.496628
49.199276
83.682709
47.402977
49.819843
60.676876
69.338135
92.530266
108.898087
171.467300
22.731838
53.200336
30.892349
90.211571
63.948997
77.176880
82.539047
117.613281
120.997871
124.741272
210.979034
46.860813
46.705265
29.083485
52.543697
34.232859
58.313526
65.333992
58.309971
55.105343
73.928623
79.299843
67.671932
64.796589
68.116222
196.311890
117.191849
123.457443
85.462830
281.624420
133.922653
290.616241
70.988441
44.416607
90.254883
151.308014
53.291630
64.686935
131.524200
88.303902
105.851082
122.814888
135.682297
78.693771
14.754962
56.968246
57.769157
70.887703
60.550564
20.892274
34.408907
74.161354
35.623470
55.853683
81.868019
75.397469
113.068718
30.108635
169.425674
52.558014
104.666901
99.195679
81.220009
71.511127
60.171879
33.204494
83.275146
81.931351
76.540245
65.899109
84.980522
54.485710
59.563980
66.958252
44.765667
97.430290
51.643528
33.586411
38.409792
35.777653
60.707966
78.039185
48.166916
80.375282
61.947090
78.154182
22.623707
118.181801
142.480774
26.623287
132.642899
229.283539
56.825127
60.394596
75.764648
110.633987
52.079254
122.025337
70.456341
258.249878
59.196362
53.043121
45.216465
35.700684
51.162258
118.359070
61.877628
30.076012
41.279333
87.351234
68.683750
56.481308
71.514229
55.809559
65.219234
105.182945
104.625000
60.668903
79.414017
130.192039
70.229481
71.573502
89.846451
28.384781
72.416512
45.161449
56.231522
131.431244
96.875610
99.752892
130.396652
100.271713
66.664261
37.370710
43.752052
71.151466
41.118000
66.370190
154.632401
96.651146
118.269890
75.881142
69.588608
133.327576
116.351524
81.088745
63.323097
155.167816
113.458977
25.467664
158.986465
125.152580
71.301208
45.615414
57.375664
45.367550
86.835510
66.286335
73.827042
42.437042
71.938686
163.797485
82.424278
63.586258
80.117462
29.911842
41.838478
61.109585
60.893108
64.330143
38.728275
55.425915
221.896347
80.105125
78.896431
64.074726
50.625065
45.417618
44.139271
46.707794
67.532215
143.892776
109.064430
47.910572
39.297113
45.694450
37.962152
42.186184
70.764812
47.950718
89.456726
165.693420
82.432472
32.458920
67.208282
82.149666
43.820557
73.479576
45.935825
66.561386
188.680817
112.072166
102.180641
40.987846
52.771996
138.002243
41.648037
108.445801
34.417744
95.013298
113.361420
54.168430
121.197136
91.587250
48.048012
36.451714
56.558758
62.959507
56.917732
32.612638
212.992996
68.562569
34.541519
186.019516
226.023758
182.125763
64.258900
44.596344
70.788933
33.938267
46.124302
32.683844
32.849281
24.144743
119.408058
64.268478
112.718132
54.982113
68.983360
62.589954
54.164478
50.010422
106.657654
116.106628
109.332130
66.256428
60.018013
63.962975
120.042854
64.218464
134.946602
57.610073
76.006805
44.652248
104.045059
51.066334
51.188919
94.615891
81.340904
27.621033
70.449741
101.433792
101.909248
75.161865
47.620808
75.046783
135.340225
39.843029

