# vtk DataFile Version 3.1
Tetrahedral Mesh Visualization
ASCII
DATASET UNSTRUCTURED_GRID

POINTS 277 FLOAT
0.000000 1.378113 1.754166
0.000000 0.000000 0.000000
2.002039 -0.011522 0.005078
0.000000 1.666667 0.000000
2.417498 -0.010746 1.743331
0.000000 0.000000 1.666667
1.692484 2.459596 0.004331
2.997491 2.445152 2.332099
3.996978 4.990109 0.008408
3.076241 4.989242 1.655084
5.214916 5.000015 1.617750
3.487482 3.167985 0.010513
5.402693 3.295306 0.013045
6.003757 4.988070 0.009974
7.360578 3.308958 0.014589
6.974433 4.987848 1.333346
9.243716 2.149144 2.049331
8.701120 4.977337 1.610381
9.343081 3.290501 0.012721
10.669520 4.947422 1.659505
11.339993 3.264627 0.016306
11.104208 1.811736 1.584829
10.667051 1.611234 0.025119
12.662545 1.582263 0.034214
13.335745 3.238969 0.022110
12.965533 1.796209 1.530715
14.657187 1.557748 0.045613
13.982780 -0.100052 0.061950
15.462354 2.039219 1.735042
15.316441 -0.102092 1.731483
13.321083 -0.077548 1.729159
17.279203 -0.106672 1.664272
16.647728 1.538174 0.040656
17.979132 -0.126225 0.045568
15.974319 -0.121132 0.063389
18.646351 1.545128 0.013353
18.990587 -0.100992 1.352272
19.973423 -0.127735 0.020245
16.731705 -0.088956 3.356842
19.006813 -0.084500 3.134319
17.710814 2.594958 2.962682
18.022684 -0.072347 5.026398
16.699011 1.591534 5.033413
16.007450 -0.063757 5.061523
14.672115 -0.083908 3.403074
15.780339 2.798642 3.385199
18.755634 1.630520 5.002546
17.337629 3.263755 5.016607
19.307808 3.325993 4.987533
19.334591 4.923300 3.307363
21.018221 3.634259 4.952908
21.336735 4.934082 3.269141
19.629187 2.411289 2.344736
20.658600 4.906321 1.611401
21.914268 2.435347 2.420556
22.654629 4.912395 1.569110
23.264896 3.270555 -0.090463
23.967154 2.378317 2.209858
24.979910 3.570115 -0.115914
24.980326 1.783802 -0.088684
25.978571 2.423988 1.622264
27.261145 1.606145 -0.099876
26.698856 3.292124 -0.117211
29.277308 -0.055816 1.534360
28.004978 -0.079516 -0.078019
29.315144 1.591527 -0.102571
30.992283 -0.054591 1.251475
32.011993 -0.085147 -0.055223
31.316355 1.584020 -0.094148
30.009275 -0.075452 -0.076072
33.279293 1.558146 -0.074056
34.005497 -0.103477 -0.032663
32.685379 -0.059761 1.566386
34.596939 -0.066185 1.657200
34.992748 2.356912 2.467320
36.507568 -0.073338 1.797458
35.139591 -0.027013 3.362660
36.830662 -0.032004 3.522765
38.289886 2.504846 4.917052
37.683590 2.096735 2.110320
38.299236 -0.066144 2.503466
37.992191 -0.114099 -0.028310
37.990013 -0.011589 4.980219
35.990913 0.002841 4.977695
36.559311 1.746269 4.943886
34.931084 1.346696 4.950708
34.844238 3.139635 4.915622
36.755131 3.476637 4.911253
33.989483 5.007437 4.867050
32.690052 3.311940 4.894540
33.267746 4.971852 3.208300
31.989601 5.015091 4.846371
35.152325 4.967456 3.269834
32.206814 2.561669 2.325561
34.591610 4.929468 1.562720
32.634666 3.234530 -0.123217
33.207626 -0.022362 3.275801
30.988611 -0.025699 3.043713
31.312645 1.668499 4.908182
33.242138 1.614914 4.930718
30.667938 3.341621 4.874877
28.663801 3.322716 4.873598
29.331354 1.663265 4.897906
30.021608 2.462869 2.364762
27.961956 2.434459 2.364883
26.662676 3.304496 4.868635
27.330067 1.641077 4.895435
24.645060 4.919369 1.525349
21.972712 4.873580 -0.086767
21.308447 3.217163 -0.051645
22.711460 1.572953 -0.048856
19.978643 4.879443 -0.045530
19.317579 3.210901 -0.021482
18.662338 4.897586 1.645209
17.984407 4.877992 -0.007597
17.316944 3.206138 0.014645
16.002811 4.883964 0.004041
16.667610 4.897401 1.673280
14.674152 4.909234 1.673018
13.699510 2.885769 3.296381
12.995934 1.285553 5.040498
12.652376 -0.051375 3.389954
13.985310 -0.052761 5.063378
11.271888 1.603934 5.029234
10.644343 -0.027098 3.372597
11.978525 -0.016954 5.051627
9.978867 0.000549 5.035629
11.312332 -0.054122 1.713041
9.293175 -0.028799 1.701380
9.984659 -0.040500 0.033200
8.673717 1.632840 0.019736
8.006433 4.979890 0.009143
10.014712 4.951096 0.004355
11.220208 2.607853 3.304336
9.261658 4.989815 3.296468
10.741869 3.306116 5.006961
11.326007 4.963360 3.323532
10.012058 5.002172 4.991944
12.016713 4.976189 4.993135
8.012201 5.021068 4.992477
8.741998 3.401856 5.000398
6.970110 5.006114 3.114705
5.359907 3.389695 5.004636
6.001812 5.021293 5.000652
7.036311 3.707419 5.005737
5.134960 2.370258 3.153311
4.622836 5.003448 3.294940
3.487372 3.201601 5.006166
3.997465 5.013233 5.002064
2.369483 4.994181 3.286370
4.836362 1.594029 0.012778
4.897206 -0.007491 1.894782
6.714746 1.634614 0.012313
7.002098 2.552575 2.207456
8.637928 -0.009524 3.368034
17.338057 4.909298 3.337608
15.334486 4.910542 3.347824
16.018608 4.924185 5.011380
14.718843 1.550388 5.047992
15.283057 3.233938 5.031189
11.983246 -0.072864 0.048705
15.329383 3.217597 0.031039
14.013995 4.897405 -0.000447
12.675490 4.926626 1.670503
13.342645 4.937346 3.333226
7.225825 -0.011441 1.718278
6.655413 0.001098 3.406008
4.907588 1.664934 5.017210
5.987018 0.019337 5.026386
4.904680 0.001577 3.683620
3.992059 0.008000 5.017841
7.045548 1.911093 5.014875
7.977604 0.014011 5.025148
9.272200 1.697883 5.020850
21.022091 1.843364 4.970786
22.725973 3.349242 4.928568
24.017654 4.960446 4.884449
24.680599 3.303192 4.891888
23.330177 4.938236 3.229877
27.318830 4.945749 3.173252
26.648661 4.925632 1.513770
25.322903 4.944493 3.181866
35.157444 1.500162 -0.057138
36.829071 1.344065 -0.057284
39.992016 3.189507 3.513266
39.989822 1.554666 2.531379
38.301258 4.932864 2.404298
39.987335 3.161721 1.785465
39.999363 4.935309 3.198012
38.011028 4.982336 4.875509
40.024979 4.960457 4.857877
39.998802 3.307389 4.890710
39.986923 1.645448 4.946618
39.988583 -0.055052 3.309952
39.992138 -0.092387 1.638543
39.984730 -0.116025 -0.037596
39.980072 1.544635 -0.071245
39.982185 3.212944 -0.110875
38.287933 2.352942 -0.090983
37.983288 4.885959 -0.130204
39.990856 4.905417 1.528721
36.836582 4.967100 3.429372
36.506203 4.934597 1.705511
36.499062 3.076348 -0.090430
35.992741 4.903422 -0.121632
34.593967 3.203808 -0.102523
33.998283 4.897961 -0.141074
30.653019 3.253406 -0.122404
29.990246 4.923929 -0.150664
32.000713 4.911542 -0.148612
30.650375 4.950057 1.509754
28.659071 3.256129 -0.120860
26.728809 -0.053252 3.306940
27.264948 -0.067120 1.611659
25.328804 1.626363 4.906847
24.024538 -0.044777 4.949278
26.018263 -0.037552 4.933528
25.008041 -0.056269 3.609123
23.285536 1.659499 4.936061
23.282402 -0.061799 3.350629
21.272268 -0.067955 3.303050
22.025673 -0.044276 4.981528
20.025810 -0.054827 5.008193
18.023684 4.921274 5.001347
20.023649 4.943175 4.962571
22.726925 -0.091914 1.667964
24.993128 -0.074837 1.818862
23.979740 -0.114719 -0.044487
25.991444 -0.093216 -0.068432
25.977135 4.897049 -0.140168
25.703863 2.176938 3.380555
28.654739 4.937815 1.513757
27.985046 4.909985 -0.144607
26.000978 4.969630 4.848833
12.015484 4.925064 0.006970
13.004729 3.073197 5.016657
14.013298 4.943573 5.009470
22.023991 4.955442 4.927907
28.741302 -0.034975 3.230509
29.314991 4.967086 3.179804
29.990904 5.005995 4.845622
31.305227 4.976346 3.178853
31.991583 0.014880 4.952853
33.995239 0.011408 4.965779
35.996975 4.998411 4.876586
32.637226 4.938458 1.522891
20.657356 1.544836 -0.016083
20.716787 -0.093528 1.620723
23.967159 4.878582 -0.134336
27.992153 4.984292 4.840944
39.987232 4.867495 -0.143225
3.180760 1.475128 5.014203
0.000000 3.103853 1.750106
0.000000 5.000000 1.666667
0.000000 3.333333 0.000000
2.002118 4.991045 0.004884
0.000000 5.000000 0.000000
0.000000 5.000000 3.333333
0.000000 0.000000 3.333333
1.697957 2.466903 5.006378
3.032888 -0.003599 3.405653
1.998107 0.003132 5.016906
0.000000 2.403264 3.370902
0.000000 1.666667 5.000000
0.000000 3.333333 5.000000
0.000000 0.000000 5.000000
28.012531 -0.022270 4.916494
30.005102 0.003938 4.933205
36.001545 -0.113141 -0.023401
39.993130 -0.020241 4.973878
7.984359 -0.023910 0.025415
1.996305 4.990880 5.010058
3.157622 1.442978 0.004508
3.998991 -0.009101 0.010012
21.975924 -0.125647 -0.011596
0.000000 5.000000 5.000000
5.991601 -0.018774 0.017327

CELLS 734 3670
4 0 1 2 3
4 0 4 2 5
4 0 3 2 6
4 4 6 0 2
4 4 6 7 0
4 8 9 10 11
4 12 13 14 15
4 16 17 14 18
4 19 20 18 21
4 20 22 21 23
4 24 25 26 23
4 25 27 26 23
4 26 28 29 30
4 28 29 31 32
4 33 34 32 31
4 31 33 35 32
4 31 33 36 35
4 33 37 36 35
4 38 39 40 31
4 41 42 43 38
4 44 42 45 38
4 44 42 38 43
4 46 38 42 41
4 46 47 40 48
4 49 50 51 52
4 53 54 51 55
4 56 54 55 57
4 56 58 59 57
4 60 59 61 62
4 63 61 64 65
4 66 67 68 69
4 67 70 71 72
4 73 74 75 76
4 74 77 75 76
4 77 78 79 80
4 79 81 75 80
4 77 78 80 82
4 77 83 76 84
4 83 85 76 84
4 85 86 74 84
4 74 86 87 84
4 88 89 86 90
4 91 89 88 90
4 86 88 90 92
4 90 86 92 74
4 86 89 74 90
4 93 94 95 74
4 70 74 72 93
4 70 73 71 72
4 74 96 73 72
4 66 97 93 72
4 96 97 72 93
4 96 98 97 93
4 85 96 74 99
4 96 98 93 99
4 98 89 100 93
4 101 102 100 103
4 104 105 101 106
4 107 58 57 60
4 58 107 57 56
4 53 108 109 55
4 56 110 109 54
4 53 111 109 108
4 112 53 109 52
4 111 112 113 53
4 112 111 113 114
4 115 116 114 117
4 40 28 115 117
4 45 117 118 28
4 119 28 25 44
4 120 44 121 122
4 123 121 124 125
4 125 123 126 124
4 127 128 21 124
4 16 129 128 21
4 16 18 14 130
4 16 17 18 19
4 131 17 132 18
4 16 19 18 21
4 133 16 19 134
4 135 134 133 136
4 135 137 136 138
4 137 134 139 140
4 141 142 143 144
4 145 146 147 7
4 142 148 147 146
4 7 146 147 149
4 10 7 9 146
4 145 150 7 151
4 152 151 150 153
4 16 128 154 124
4 124 21 121 133
4 25 28 30 44
4 28 38 45 40
4 45 47 40 42
4 155 45 156 47
4 157 156 47 155
4 155 45 40 117
4 45 42 158 159
4 44 42 43 158
4 119 45 158 159
4 120 44 158 119
4 25 127 21 121
4 25 27 160 30
4 127 25 160 30
4 25 127 121 30
4 44 25 121 30
4 28 30 44 29
4 119 28 44 45
4 119 28 118 25
4 28 24 26 161
4 26 32 29 28
4 28 31 29 38
4 46 38 41 39
4 46 38 39 40
4 28 117 40 45
4 118 28 117 161
4 162 24 118 161
4 118 119 163 164
4 136 119 164 163
4 25 133 21 163
4 128 16 21 124
4 165 166 153 154
4 166 167 168 169
4 167 168 169 170
4 171 168 172 166
4 124 173 126 154
4 123 121 133 124
4 120 125 122 121
4 122 158 44 43
4 47 46 40 42
4 52 50 174 48
4 175 50 174 54
4 176 175 177 178
4 179 60 180 181
4 64 69 63 65
4 68 72 67 66
4 70 73 182 71
4 74 79 183 75
4 184 78 185 79
4 79 184 186 187
4 186 184 188 187
4 184 189 190 191
4 184 78 79 186
4 78 189 184 191
4 189 184 190 188
4 184 78 191 192
4 184 78 192 185
4 192 78 80 185
4 193 80 194 185
4 195 81 196 194
4 81 79 196 194
4 197 187 196 198
4 187 79 185 196
4 79 184 187 185
4 197 199 187 198
4 199 197 187 200
4 199 200 187 186
4 78 201 79 186
4 189 201 87 78
4 202 201 79 74
4 201 74 92 87
4 201 202 92 74
4 201 202 79 186
4 202 203 74 79
4 202 198 203 79
4 204 202 199 203
4 202 203 205 74
4 202 204 205 203
4 182 203 74 205
4 74 203 183 79
4 79 203 183 198
4 79 81 198 183
4 81 79 198 196
4 187 79 196 198
4 202 198 79 186
4 202 204 94 205
4 94 95 205 206
4 207 208 209 210
4 208 207 211 210
4 104 103 211 65
4 104 60 212 213
4 214 215 216 217
4 218 219 220 221
4 222 174 220 221
4 46 39 222 174
4 52 46 40 48
4 40 49 52 48
4 53 49 52 113
4 40 49 155 113
4 155 45 47 40
4 157 47 223 155
4 49 223 224 48
4 52 50 51 54
4 175 54 57 178
4 218 175 54 57
4 225 219 54 57
4 218 175 57 177
4 57 217 219 218
4 219 225 226 57
4 225 227 226 57
4 59 110 57 227
4 59 60 61 228
4 61 60 213 228
4 64 61 213 228
4 63 61 213 64
4 61 104 211 65
4 180 60 104 62
4 58 229 62 180
4 58 60 180 62
4 60 61 104 62
4 60 226 230 212
4 226 60 213 212
4 60 104 212 230
4 179 60 230 104
4 104 211 231 62
4 180 229 62 232
4 180 232 62 231
4 179 60 104 180
4 233 181 105 179
4 181 105 179 230
4 105 214 106 230
4 105 214 230 177
4 215 214 218 217
4 215 217 218 219
4 218 215 219 221
4 218 175 174 54
4 39 52 220 174
4 39 46 52 174
4 115 52 112 35
4 28 115 117 161
4 162 118 116 161
4 24 162 118 163
4 20 19 234 163
4 25 133 163 119
4 120 119 158 235
4 236 119 235 159
4 235 119 158 159
4 119 235 133 136
4 138 235 236 164
4 45 47 42 159
4 46 38 40 42
4 49 50 52 48
4 237 175 176 178
4 181 233 177 176
4 180 179 231 104
4 207 103 65 211
4 207 103 68 65
4 65 66 103 68
4 103 66 97 93
4 66 103 97 63
4 213 104 63 238
4 238 97 103 63
4 104 102 103 238
4 104 106 212 230
4 214 212 106 230
4 214 212 216 106
4 214 212 217 216
4 214 212 230 217
4 226 217 230 212
4 226 60 230 57
4 181 60 57 230
4 179 105 104 230
4 179 105 101 104
4 104 239 103 101
4 239 101 240 100
4 91 241 240 100
4 241 239 240 100
4 239 241 103 100
4 103 210 93 241
4 103 207 93 210
4 210 103 231 239
4 103 239 104 231
4 103 104 63 65
4 65 66 63 103
4 65 66 68 69
4 68 72 66 93
4 96 98 242 97
4 85 96 99 243
4 85 86 99 74
4 86 89 99 74
4 88 86 244 92
4 74 86 92 87
4 201 244 87 92
4 244 86 87 92
4 90 74 92 94
4 94 95 206 245
4 95 209 206 245
4 245 207 95 209
4 208 232 231 211
4 180 104 231 62
4 181 60 107 57
4 54 175 51 178
4 50 52 174 54
4 246 36 52 247
4 246 36 37 35
4 52 31 36 35
4 31 39 52 36
4 39 46 222 41
4 39 222 174 220
4 174 218 220 221
4 218 219 54 220
4 225 219 220 54
4 56 110 54 57
4 110 56 59 57
4 60 59 226 228
4 60 226 213 228
4 57 217 230 226
4 214 217 230 218
4 218 57 230 177
4 181 105 230 177
4 179 60 181 230
4 58 107 180 60
4 229 107 58 248
4 229 107 180 58
4 60 58 59 62
4 58 107 56 248
4 108 56 109 55
4 108 56 55 248
4 107 56 55 57
4 107 181 57 178
4 57 181 177 178
4 181 176 177 178
4 233 181 177 105
4 249 239 101 240
4 91 89 241 100
4 89 91 241 90
4 210 245 93 241
4 245 241 90 93
4 93 94 90 245
4 74 202 92 94
4 205 204 94 206
4 202 198 199 203
4 202 198 186 199
4 199 197 200 250
4 199 186 187 198
4 200 186 188 187
4 184 189 186 188
4 201 189 87 244
4 189 201 78 186
4 201 78 79 87
4 189 78 184 186
4 186 79 187 198
4 74 201 79 87
4 74 79 84 87
4 79 78 84 87
4 77 78 84 79
4 74 77 84 79
4 74 85 84 76
4 83 243 76 85
4 85 96 243 76
4 73 96 74 76
4 96 93 74 99
4 89 93 99 74
4 93 94 74 90
4 93 94 245 95
4 207 95 68 93
4 95 70 68 93
4 95 70 74 205
4 74 70 182 205
4 94 95 74 205
4 241 89 90 93
4 104 179 231 239
4 181 60 180 107
4 107 57 55 178
4 57 54 55 178
4 53 49 51 52
4 40 49 113 52
4 155 47 223 48
4 45 47 159 156
4 119 156 45 159
4 120 44 119 121
4 16 173 124 154
4 166 167 169 145
4 145 7 147 251
4 9 7 252 149
4 253 254 252 255
4 256 253 255 254
4 6 9 252 255
4 253 257 149 252
4 7 258 259 260
4 260 261 251 170
4 169 260 251 170
4 169 251 167 170
4 166 167 145 171
4 16 22 18 130
4 25 24 20 23
4 24 25 118 28
4 119 156 118 45
4 119 28 45 118
4 119 45 44 158
4 44 38 28 29
4 25 28 26 30
4 25 24 26 28
4 24 20 234 163
4 162 24 234 163
4 163 119 118 25
4 235 135 133 136
4 135 134 140 133
4 145 141 153 144
4 145 260 169 151
4 0 258 4 5
4 259 258 262 263
4 264 259 262 263
4 258 7 262 0
4 260 258 259 261
4 258 261 263 259
4 261 258 263 265
4 261 260 251 259
4 167 251 169 145
4 145 260 251 169
4 166 167 171 168
4 16 171 153 140
4 137 135 136 134
4 138 135 235 136
4 235 138 136 164
4 236 119 156 164
4 157 156 159 47
4 155 47 48 40
4 40 49 48 155
4 46 52 174 48
4 247 225 220 54
4 110 225 57 227
4 60 59 57 226
4 104 61 211 62
4 232 211 62 231
4 103 104 211 231
4 239 210 103 241
4 241 93 103 100
4 68 72 93 70
4 103 207 68 93
4 207 103 211 210
4 210 208 231 211
4 103 210 231 211
4 245 207 210 93
4 245 207 209 210
4 245 207 93 95
4 70 95 74 93
4 70 73 74 182
4 182 203 183 74
4 202 74 205 94
4 93 89 90 74
4 89 241 100 93
4 93 98 103 100
4 101 104 102 103
4 104 101 102 106
4 106 238 104 212
4 266 216 212 106
4 106 238 212 266
4 106 238 102 104
4 267 266 238 102
4 97 102 267 238
4 106 238 266 102
4 97 102 238 103
4 97 102 103 98
4 97 102 98 267
4 97 98 242 267
4 96 98 99 242
4 89 98 99 93
4 239 101 100 103
4 104 179 239 101
4 179 249 239 101
4 105 179 101 249
4 233 105 249 179
4 177 181 57 230
4 175 57 177 178
4 175 237 51 178
4 55 54 51 178
4 112 111 109 53
4 112 53 52 113
4 117 115 113 114
4 116 118 117 161
4 115 116 117 161
4 28 115 161 32
4 29 32 26 34
4 26 30 29 27
4 34 26 29 27
4 29 34 31 32
4 31 115 32 35
4 31 115 28 32
4 246 112 52 35
4 246 247 52 54
4 247 110 225 54
4 59 227 57 226
4 213 104 238 212
4 104 103 63 238
4 97 98 103 93
4 70 73 72 74
4 71 182 268 73
4 182 75 268 73
4 182 75 183 268
4 183 81 268 75
4 182 75 74 183
4 79 81 183 75
4 79 81 80 194
4 78 192 80 82
4 192 193 80 82
4 269 193 192 82
4 193 192 80 185
4 80 79 194 185
4 77 74 75 79
4 85 96 76 74
4 96 243 242 99
4 98 102 103 100
4 104 105 106 230
4 214 218 230 177
4 50 175 51 54
4 49 155 223 48
4 157 156 236 159
4 236 119 159 156
4 235 119 164 136
4 236 119 164 235
4 133 235 120 123
4 120 235 133 119
4 135 123 235 133
4 124 173 123 126
4 173 172 126 154
4 166 171 154 172
4 172 171 154 173
4 171 16 154 173
4 171 166 154 153
4 16 171 154 153
4 124 173 16 133
4 124 173 133 123
4 25 133 119 121
4 19 16 133 21
4 163 19 133 21
4 134 19 133 136
4 133 119 136 163
4 133 19 163 136
4 132 20 18 19
4 20 132 234 19
4 20 19 163 21
4 22 20 21 18
4 16 22 21 18
4 128 129 127 21
4 160 129 21 127
4 160 21 25 127
4 25 20 21 23
4 25 27 23 160
4 25 27 30 26
4 23 22 21 160
4 16 129 21 22
4 128 130 165 270
4 128 130 270 129
4 128 130 16 165
4 16 165 153 154
4 17 16 14 153
4 131 17 18 14
4 17 141 153 15
4 12 10 15 153
4 15 17 14 153
4 153 16 14 130
4 16 129 22 130
4 128 130 129 16
4 16 128 165 154
4 151 166 153 165
4 260 145 7 151
4 9 6 252 7
4 7 262 252 149
4 260 259 7 251
4 7 259 147 251
4 264 259 271 149
4 259 7 147 149
4 146 148 147 149
4 271 259 147 149
4 148 271 147 149
4 146 142 143 141
4 144 141 140 139
4 141 134 140 139
4 143 141 144 139
4 142 145 141 146
4 145 142 141 144
4 148 142 143 146
4 145 7 10 146
4 145 150 151 153
4 151 272 150 7
4 151 272 273 150
4 151 272 4 273
4 4 272 2 273
4 151 272 7 4
4 4 260 7 151
4 166 145 151 153
4 166 145 169 151
4 171 166 153 145
4 133 16 140 173
4 124 16 21 133
4 25 21 160 23
4 21 129 160 22
4 121 21 124 127
4 121 120 133 119
4 123 121 125 120
4 123 121 120 133
4 25 133 121 21
4 25 20 163 21
4 118 24 28 161
4 26 28 161 32
4 40 115 28 31
4 115 52 113 112
4 246 112 109 52
4 246 52 109 54
4 56 54 109 55
4 56 107 55 248
4 58 60 59 57
4 63 61 65 104
4 68 72 70 67
4 182 75 73 74
4 77 79 75 80
4 196 79 185 194
4 79 78 185 80
4 77 78 82 84
4 83 77 82 84
4 77 74 84 76
4 96 74 93 72
4 103 66 93 68
4 65 66 69 63
4 63 61 104 213
4 61 60 104 213
4 59 227 226 228
4 274 110 227 225
4 246 36 247 37
4 246 36 35 52
4 52 115 40 31
4 28 31 38 40
4 44 42 158 45
4 120 44 122 158
4 135 133 140 173
4 171 16 173 140
4 171 144 153 140
4 141 144 140 153
4 10 141 15 153
4 10 12 15 13
4 10 8 12 13
4 8 10 12 11
4 8 9 11 255
4 9 253 149 252
4 257 262 149 252
4 262 259 149 7
4 258 7 4 260
4 259 258 7 262
4 262 0 7 252
4 0 6 7 252
4 254 6 252 255
4 0 3 6 252
4 6 3 254 252
4 272 6 11 7
4 4 6 272 7
4 4 6 2 272
4 9 6 11 255
4 9 253 252 255
4 262 264 257 149
4 257 264 275 271
4 259 264 262 149
4 257 264 271 149
4 9 146 7 149
4 10 7 11 9
4 7 12 10 11
4 145 150 153 12
4 12 145 10 153
4 145 146 10 141
4 145 142 147 146
4 171 145 153 144
4 171 142 145 144
4 142 171 145 167
4 142 145 147 167
4 167 145 147 251
4 145 260 7 251
4 145 150 12 7
4 12 145 7 10
4 12 152 153 14
4 152 153 14 130
4 152 151 153 165
4 165 152 276 270
4 152 151 165 276
4 165 152 270 130
4 152 151 276 150
4 276 150 151 273
4 272 7 11 150
4 7 12 11 150
4 153 150 152 12
4 165 16 153 130
4 165 152 130 153
4 15 12 153 14
4 13 131 14 15
4 17 131 15 14
4 17 132 18 19
4 25 24 163 20
4 25 24 118 163
4 119 156 164 118
4 118 117 45 156
4 155 45 117 156
4 113 40 117 155
4 50 49 224 48
4 49 50 224 51
4 50 237 224 51
4 237 50 175 51
4 52 54 220 174
4 52 247 220 54
4 39 247 220 52
4 39 247 52 36
4 115 52 35 31
4 40 115 52 113
4 40 115 113 117
4 115 112 113 114
4 53 52 51 54
4 54 53 109 55
4 52 53 109 54
4 110 246 109 54
4 247 110 54 246
4 247 110 274 225
4 246 274 37 247
4 247 110 246 274
4 110 225 54 57
4 57 217 226 219
4 57 217 218 230
4 219 218 54 57
4 218 54 174 220
4 46 39 52 40
4 39 31 52 40
4 38 42 45 40
4 28 38 44 45
4 121 25 44 119
4 123 135 173 133
4 134 153 140 16
4 134 16 140 133
4 137 135 134 140
4 134 153 141 140
4 134 153 16 17
4 16 17 19 134
4 134 153 17 141
4 153 145 10 141
4 6 9 11 7
4 258 7 0 4
4 1 0 2 5

CELL_TYPES 734
10
10
10
10
10
10
10
10
10
10
10
10
10
10
10
10
10
10
10
10
10
10
10
10
10
10
10
10
10
10
10
10
10
10
10
10
10
10
10
10
10
10
10
10
10
10
10
10
10
10
10
10
10
10
10
10
10
10
10
10
10
10
10
10
10
10
10
10
10
10
10
10
10
10
10
10
10
10
10
10
10
10
10
10
10
10
10
10
10
10
10
10
10
10
10
10
10
10
10
10
10
10
10
10
10
10
10
10
10
10
10
10
10
10
10
10
10
10
10
10
10
10
10
10
10
10
10
10
10
10
10
10
10
10
10
10
10
10
10
10
10
10
10
10
10
10
10
10
10
10
10
10
10
10
10
10
10
10
10
10
10
10
10
10
10
10
10
10
10
10
10
10
10
10
10
10
10
10
10
10
10
10
10
10
10
10
10
10
10
10
10
10
10
10
10
10
10
10
10
10
10
10
10
10
10
10
10
10
10
10
10
10
10
10
10
10
10
10
10
10
10
10
10
10
10
10
10
10
10
10
10
10
10
10
10
10
10
10
10
10
10
10
10
10
10
10
10
10
10
10
10
10
10
10
10
10
10
10
10
10
10
10
10
10
10
10
10
10
10
10
10
10
10
10
10
10
10
10
10
10
10
10
10
10
10
10
10
10
10
10
10
10
10
10
10
10
10
10
10
10
10
10
10
10
10
10
10
10
10
10
10
10
10
10
10
10
10
10
10
10
10
10
10
10
10
10
10
10
10
10
10
10
10
10
10
10
10
10
10
10
10
10
10
10
10
10
10
10
10
10
10
10
10
10
10
10
10
10
10
10
10
10
10
10
10
10
10
10
10
10
10
10
10
10
10
10
10
10
10
10
10
10
10
10
10
10
10
10
10
10
10
10
10
10
10
10
10
10
10
10
10
10
10
10
10
10
10
10
10
10
10
10
10
10
10
10
10
10
10
10
10
10
10
10
10
10
10
10
10
10
10
10
10
10
10
10
10
10
10
10
10
10
10
10
10
10
10
10
10
10
10
10
10
10
10
10
10
10
10
10
10
10
10
10
10
10
10
10
10
10
10
10
10
10
10
10
10
10
10
10
10
10
10
10
10
10
10
10
10
10
10
10
10
10
10
10
10
10
10
10
10
10
10
10
10
10
10
10
10
10
10
10
10
10
10
10
10
10
10
10
10
10
10
10
10
10
10
10
10
10
10
10
10
10
10
10
10
10
10
10
10
10
10
10
10
10
10
10
10
10
10
10
10
10
10
10
10
10
10
10
10
10
10
10
10
10
10
10
10
10
10
10
10
10
10
10
10
10
10
10
10
10
10
10
10
10
10
10
10
10
10
10
10
10
10
10
10
10
10
10
10
10
10
10
10
10
10
10
10
10
10
10
10
10
10
10
10
10
10
10
10
10
10
10
10
10
10
10
10
10
10
10
10
10
10
10
10
10
10
10
10
10
10
10
10
10
10
10
10
10
10
10
10
10
10
10
10
10
10
10
10
10
10
10
10
10
10
10
10
10
10
10
10
10
10
10
10
10
10
10
10
10
10
10
10
10
10
10
10
10
10
10
10
10
10
10
10
10
10
10
10
10
10
10
10
10
10
10
10
10
10
10
10
10
10
10
10
10
10
10
10
10
10
10
10
10
10
10
10
10
10
10
10
10

CELL_DATA 734
SCALARS potentialEnergy FLOAT 1
LOOKUP_TABLE default
63.042213
26.698271
69.267754
54.857407
42.854660
78.302727
54.003422
45.490898
84.328911
117.694756
93.816353
85.840302
105.248344
121.533791
68.476078
106.581741
54.130375
96.519814
199.892746
182.942215
76.537369
59.252254
83.396950
76.236176
207.494003
241.346771
199.492584
94.007202
201.744003
89.359413
84.097481
135.596039
115.597336
61.101406
136.801376
140.191238
152.628662
18.564506
36.795801
96.790680
93.080399
60.193207
84.244637
46.248035
104.373055
93.420517
340.075867
219.017044
112.607986
115.545975
320.387329
150.005875
184.946869
118.616692
127.148422
79.927963
164.018082
138.553314
68.579582
157.074478
149.442032
119.583672
79.913727
143.205673
70.823792
142.332687
183.287247
72.189320
355.520782
222.141830
64.712467
126.153542
46.277203
124.023575
122.658592
78.777992
149.872467
97.433548
108.640022
163.817383
169.195847
51.170525
38.935217
63.891663
130.963295
58.066803
100.274734
70.066765
54.757168
51.485138
86.488243
270.895782
145.066635
61.415573
59.329315
235.284988
43.433620
132.868309
63.640408
61.523327
94.851891
184.701096
309.218933
180.444351
150.796295
100.205536
162.612350
160.948441
113.813217
166.431686
103.391594
132.619766
122.991837
141.129578
197.948532
71.296459
156.146744
81.362061
75.341446
79.289551
119.388206
172.344238
31.314766
95.532860
86.510696
90.614708
46.251595
160.045990
91.309303
346.125732
112.125854
172.852936
64.606094
55.124897
147.979477
34.744293
85.799576
105.959290
128.533043
139.402557
211.337387
37.163776
159.118301
157.369766
86.945229
174.051666
106.315170
136.178856
199.417847
49.592186
157.909134
228.804230
51.528934
137.654572
111.941292
15.894737
22.916547
55.765461
184.542953
31.815613
133.588173
60.227787
95.726189
100.834404
114.732582
99.956848
169.463547
287.003265
127.084167
159.312637
129.186081
126.203033
228.346512
198.843246
124.903374
124.733536
135.214218
88.916679
171.217361
146.043411
50.923973
88.552071
110.768036
25.065345
43.236034
70.277515
139.838776
142.321472
257.234665
260.605652
43.327049
33.248615
162.257980
163.368088
121.183281
80.933327
118.597618
113.180511
127.083855
236.292053
220.281097
253.227585
180.855942
147.354111
147.650711
117.358833
47.558777
112.058304
75.557411
133.270050
100.170036
56.470501
114.494049
131.892159
73.559349
141.790161
174.235519
78.082878
99.602966
63.630402
26.255404
156.341797
138.742523
81.167412
103.511345
56.454929
67.932236
186.353882
191.193390
109.407471
170.514771
120.870644
73.902313
87.175270
146.216980
121.223984
220.030304
263.672150
158.886276
109.861649
56.546032
150.259949
196.552582
156.276138
261.599030
122.726761
68.198376
106.881516
36.422413
30.432528
64.036373
91.261925
126.979538
123.558388
42.802197
109.641434
125.686890
93.520332
95.900040
52.519691
111.255493
123.521172
42.580395
77.276978
55.837486
31.935463
52.606445
31.302179
86.340622
147.389008
66.684185
51.378048
62.352184
93.232719
53.856133
59.562977
248.554306
78.081207
40.558329
65.840317
53.829842
73.111973
283.274841
41.277704
34.642483
141.453125
84.460770
139.757019
41.557804
47.101318
186.703217
79.983566
174.437149
96.090317
92.299019
116.361000
131.933517
122.041695
168.166702
53.438328
50.385918
87.312851
61.581081
98.731361
144.250656
227.306519
113.473099
80.677391
176.179565
65.507492
216.296005
81.254700
61.840851
127.179581
76.485931
176.545090
176.405640
83.224770
107.100220
529.098633
353.338837
303.100861
127.945633
139.817551
30.368467
114.626839
71.674458
230.919815
59.974846
105.078506
68.359306
98.153091
127.805611
150.221588
194.930710
67.854435
29.114643
108.416451
143.633804
38.544136
90.168037
50.394417
86.957886
148.059509
156.534973
243.196304
121.945419
187.332794
60.673897
69.502144
36.468863
69.612175
127.467064
146.059158
209.933701
202.976105
152.258041
269.365753
206.935425
196.251343
255.419418
211.591522
174.031235
53.297508
313.997589
197.869888
244.152206
251.789978
105.534775
50.775410
154.461823
262.059418
131.133957
97.019386
146.610443
48.010048
63.162518
54.758968
27.194801
21.701313
250.264282
39.928553
45.570766
69.269505
146.481171
118.856812
68.086426
116.198837
133.794922
93.172607
91.257797
67.705544
121.612946
75.828712
121.425179
46.816433
85.585457
91.334236
126.550987
127.844307
39.667421
72.577183
30.950377
24.427140
50.593079
130.616768
66.702400
71.539890
72.786629
118.926476
50.489655
83.666977
78.887810
141.537598
75.888786
52.280231
152.628662
44.384296
81.505493
132.536957
180.977997
57.866871
216.882278
55.691181
55.853806
55.721638
246.069443
89.888275
102.536659
181.139664
63.972462
29.079473
47.077049
99.271606
101.985016
76.316437
129.034256
244.280914
189.902679
109.198105
174.108032
240.425049
174.592148
24.732146
93.049965
98.758926
108.611221
83.220238
105.431885
145.739166
160.800659
75.032539
71.806293
67.294788
101.020363
63.125301
181.291641
46.622341
97.267044
95.230141
73.552078
33.659054
25.687333
116.989540
170.476654
125.320671
80.050880
247.631927
73.256641
237.928925
161.358368
65.464108
125.969147
182.363785
106.029564
93.543518
151.668961
63.245880
95.930115
26.148285
53.461281
249.460541
76.904106
210.227158
122.999565
82.752907
49.559628
138.581772
103.159164
82.116013
75.501534
67.890972
102.097343
65.964581
63.276665
117.313271
52.275993
63.697193
133.472122
78.151619
113.262405
77.129204
20.548038
104.260300
63.933250
86.426292
73.425247
88.827728
109.114265
314.579071
81.141998
152.288132
106.170105
222.318542
100.133324
37.251589
80.100639
71.466534
78.156097
130.468163
156.472305
122.386810
115.741074
71.095753
173.845169
141.290421
80.453346
113.567024
108.046509
150.138519
45.333473
49.055489
157.972687
84.194336
56.340900
121.281471
151.703598
83.047478
58.798065
88.856537
115.064400
92.262398
69.729435
42.173897
48.012943
65.626671
91.006721
72.854065
202.155670
113.629692
17.354501
62.938114
42.503090
93.947739
57.940189
98.491631
218.561066
83.281456
47.635826
35.351551
164.432709
89.752884
50.281330
135.574226
51.067612
112.282356
91.525879
57.341587
64.252491
55.066692
129.442451
150.704895
78.281654
81.325043
63.870285
31.970369
51.498039
22.457637
28.830008
32.758854
91.913918
61.528130
57.382607
76.766876
106.828651
114.469856
66.004616
94.497971
195.532516
100.672501
246.511169
55.542843
136.334923
113.828903
118.292534
191.148010
99.333466
113.817322
202.712509
86.659744
150.098679
203.596985
188.323151
63.272659
94.663589
100.657227
118.727730
84.675079
157.632629
91.784828
134.120712
23.526323
96.872910
297.391174
71.227779
36.100601
102.571793
74.849304
246.523376
105.618454
39.404078
64.326210
316.122528
131.885826
149.728226
51.623543
46.165398
60.124039
75.831856
91.169861
176.163528
18.000539
78.725899
143.975174
33.699495
31.098284
25.486240
71.319542
77.035919
44.128208
39.484905
39.807974
38.658825
26.812550
26.205725
23.856602
56.108112
41.218515
24.651112
46.270214
25.792879
124.796936
33.611471
45.132542
68.697189
90.118042
156.675049
94.724876
43.564960
93.355339
151.005112
136.306007
98.415077
46.336971
67.618282
79.813026
68.400921
73.401985
118.576157
96.218781
51.865223
90.199547
51.904285
38.126059
78.764282
56.864540
73.585365
49.508167
23.031042
55.057926
80.997887
60.585957
55.493809
67.356113
55.558067
93.147194
79.493050
59.038914
161.361237
148.223938
49.976044
173.737961
101.593185
154.234695
85.041344
71.630806
121.090286
110.318222
141.929367
92.435204
182.794205
279.248016
112.969818
112.425148
209.175339
250.059814
222.866867
116.508743
99.804047
49.466248
51.973862
50.646069
191.415787
134.797836
65.234097
119.654716
132.353661
205.028336
157.440918
51.594498
200.672348
245.577347
40.210369
134.825829
142.210129
75.129166
143.393112
60.737808
143.041763
185.871078
121.972130
89.463768
67.757126
51.671177

