# vtk DataFile Version 3.1
Tetrahedral Mesh Visualization
ASCII
DATASET UNSTRUCTURED_GRID

POINTS 277 FLOAT
0.000000 1.378113 1.754166
0.000000 0.000000 0.000000
1.999676 -0.006334 0.022580
0.000000 1.666667 0.000000
2.421985 -0.002356 1.761610
0.000000 0.000000 1.666667
1.690806 2.464368 0.021762
3.000393 2.450759 2.359650
3.992807 4.990152 0.036896
3.078782 4.997477 1.685832
5.206618 4.974397 1.650658
3.477205 3.171204 0.030476
5.387615 3.279082 0.037377
5.970953 4.978139 0.023333
7.329594 3.305047 0.008569
6.955125 4.985505 1.338787
9.249071 2.156238 2.001856
8.677547 4.985762 1.588299
9.302179 3.315800 -0.035143
10.638298 4.981142 1.587602
11.282931 3.303242 -0.079106
11.092688 1.833248 1.490408
10.628757 1.636187 -0.059890
12.611486 1.628634 -0.106820
13.269297 3.291693 -0.134569
12.948053 1.838868 1.382237
14.605395 1.627847 -0.156529
13.943847 -0.037185 -0.134240
15.442522 2.116562 1.509549
15.316850 -0.026351 1.497278
13.317979 -0.033425 1.552855
17.277199 -0.017759 1.385631
16.598513 1.627744 -0.213642
17.932032 -0.032592 -0.250116
15.936606 -0.035985 -0.188043
18.596716 1.637827 -0.290275
18.979734 -0.011281 1.036095
19.929758 -0.021753 -0.319775
16.762241 -0.006440 3.091653
19.026993 0.006154 2.826910
17.714567 2.682077 2.682533
18.079178 0.015235 4.742504
16.748814 1.663787 4.778207
16.069321 0.001358 4.811174
14.704046 -0.015870 3.183820
15.793365 2.871359 3.155756
18.804544 1.719582 4.705314
17.381016 3.341607 4.742905
19.350780 3.416859 4.662852
19.334543 5.011544 2.973894
21.058720 3.720113 4.594765
21.335976 5.021931 2.897719
19.619501 2.496507 2.022013
20.616840 5.003312 1.257742
21.903301 2.520279 2.051416
22.616680 5.005226 1.188655
23.210648 3.384355 -0.463904
23.957764 2.461791 1.827858
24.918919 3.666363 -0.507018
24.922125 1.875051 -0.489255
25.950848 2.511072 1.212865
27.178764 1.677559 -0.535407
26.626554 3.375201 -0.544819
29.224182 -0.007424 1.040159
27.907701 -0.021502 -0.538144
29.222063 1.640975 -0.597879
30.931196 -0.007148 0.690712
31.914782 -0.016752 -0.650601
31.224575 1.643072 -0.655790
29.906107 -0.028389 -0.596518
33.186371 1.643627 -0.697104
33.904060 -0.006621 -0.700561
32.634388 0.005208 0.949869
34.555271 0.016640 0.962683
34.978378 2.428998 1.776217
36.472527 0.029209 1.046209
35.152714 0.033381 2.649783
36.850399 0.036939 2.761587
38.367516 2.577228 4.145070
37.671349 2.192402 1.360381
38.290730 0.033377 1.708004
37.909111 0.006131 -0.815368
38.070858 0.058817 4.179063
36.064007 0.041941 4.237270
36.625843 1.791874 4.201807
35.000458 1.378109 4.255844
34.914299 3.173182 4.233254
36.824043 3.523802 4.178002
34.056931 5.037210 4.233474
32.756187 3.332369 4.291084
33.278999 5.020104 2.603212
32.057446 5.031202 4.290998
35.166473 5.026848 2.595881
32.183525 2.614538 1.741215
34.555519 5.018244 0.914240
32.553314 3.318426 -0.700601
33.218937 0.031117 2.633549
30.986231 0.012326 2.478255
31.372393 1.691616 4.338587
33.312164 1.643557 4.299150
30.728806 3.365473 4.333233
28.725872 3.389071 4.395409
29.387201 1.717835 4.401021
30.001392 2.506879 1.839629
27.947031 2.509182 1.908550
26.724377 3.402723 4.450355
27.386293 1.734475 4.463079
24.624905 5.006362 1.146641
21.904467 4.983923 -0.453388
21.248037 3.325465 -0.408699
22.661097 1.692631 -0.431078
19.902117 4.974436 -0.382939
19.253477 3.307082 -0.331335
18.617271 4.991374 1.334916
17.903854 4.971092 -0.302926
17.253891 3.299203 -0.253711
15.913561 4.967345 -0.223738
16.622019 4.979781 1.419709
14.625282 4.970948 1.488827
13.705189 2.939399 3.134962
13.050359 1.297079 4.883675
12.689672 -0.031493 3.232742
14.061103 -0.016072 4.867811
11.327104 1.590365 4.919714
10.680029 -0.029607 3.276328
12.050700 -0.027837 4.910082
10.048692 -0.022148 4.954371
11.308250 -0.034864 1.600377
9.292173 -0.025980 1.642685
9.955916 -0.030250 -0.043895
8.654201 1.643232 -0.020855
7.953896 4.980984 -0.011936
9.949455 4.984718 -0.057371
11.239918 2.618168 3.211384
9.271407 4.982145 3.264069
10.787706 3.286896 4.930375
11.326547 4.977269 3.244020
10.047935 4.978285 4.942284
12.047071 4.981191 4.896973
8.041471 4.981719 4.986382
8.784142 3.371699 4.973637
6.979648 4.972137 3.127729
5.386918 3.340664 5.026582
6.033291 4.967620 5.021662
7.070903 3.654100 5.005782
5.149760 2.346900 3.179381
4.631145 4.978189 3.333073
3.499977 3.175826 5.032344
4.018051 4.970245 5.041003
2.370483 4.993789 3.309241
4.827935 1.586878 0.037452
4.904746 -0.017608 1.921555
6.702981 1.620835 0.006887
7.011493 2.532531 2.207158
8.673379 -0.028094 3.324571
17.337839 4.993523 3.060632
15.336324 4.980522 3.134175
16.052166 4.996714 4.772960
14.769426 1.602198 4.838312
15.326385 3.295094 4.812372
11.948210 -0.038426 -0.084588
15.259240 3.295141 -0.188777
13.925604 4.957616 -0.165839
12.632781 4.970583 1.546478
13.336345 4.982437 3.199590
7.234502 -0.022769 1.704465
6.685427 -0.025158 3.402914
4.933728 1.624302 5.025281
6.027239 -0.020910 5.016395
4.919307 -0.023238 3.698660
4.004933 -0.015432 5.031111
7.093069 1.862438 5.006206
8.048432 -0.022612 4.996128
9.322038 1.670678 4.962393
21.068453 1.928773 4.623660
22.763700 3.436559 4.536115
24.050095 5.057632 4.477677
24.720261 3.401080 4.490345
23.335173 5.027307 2.831276
27.343836 5.035583 2.745372
26.626263 5.009188 1.099135
25.343016 5.036909 2.793259
35.070545 1.605313 -0.759025
36.752037 1.458409 -0.801395
40.027611 3.295499 2.716921
39.995201 1.666228 1.706446
38.291565 5.037134 1.655688
39.968277 3.282007 0.996629
40.016769 5.046008 2.416062
38.059410 5.062148 4.121092
40.065830 5.060614 4.075542
40.060944 3.400553 4.095313
40.075542 1.735418 4.106826
40.016590 0.050660 2.459413
39.958454 0.025652 0.793683
39.915333 0.010147 -0.875800
39.920746 1.671346 -0.881207
39.932888 3.339660 -0.894585
38.229790 2.467041 -0.845165
37.926491 4.991657 -0.872207
39.958893 5.029451 0.753302
36.853165 5.032393 2.704588
36.478622 5.016461 0.987900
36.432213 3.175318 -0.809825
35.920166 4.990257 -0.819724
34.514008 3.301813 -0.753323
33.915096 4.995116 -0.760735
30.568645 3.309407 -0.661521
29.917595 4.972139 -0.662468
31.917576 4.986203 -0.711129
30.613956 4.997753 0.987089
28.577032 3.315306 -0.608334
26.744627 0.040875 2.888550
27.228399 -0.001027 1.178763
25.375891 1.735015 4.504540
24.072319 0.048756 4.554567
26.061951 0.065799 4.519427
25.033722 0.037237 3.211298
23.324703 1.742027 4.545413
23.298859 0.019531 2.959239
21.292549 0.017238 2.950903
22.078295 0.037692 4.615915
20.080595 0.035881 4.683000
18.057455 5.011012 4.699814
20.053562 5.032366 4.613640
22.714100 0.007666 1.279154
24.981464 0.012149 1.426636
23.928942 -0.011063 -0.440533
25.922668 -0.021216 -0.486703
25.918806 4.989307 -0.543437
25.723894 2.278270 2.979500
28.622282 4.998345 1.036159
27.918344 4.978794 -0.606906
26.058922 5.065582 4.438673
11.936469 4.971077 -0.102829
13.050980 3.090663 4.881547
14.049963 4.979590 4.845374
22.056637 5.043015 4.539957
28.746513 0.028290 2.754024
29.335632 5.024996 2.684104
30.062160 5.045565 4.329423
31.318731 5.024700 2.641258
32.060921 0.041276 4.342189
34.066761 0.042368 4.297152
36.058739 5.040906 4.177845
32.593540 5.009167 0.945325
20.609928 1.649332 -0.358675
20.703144 -0.008955 1.275881
23.920784 4.991857 -0.500810
28.065241 5.061150 4.391737
39.935238 5.003625 -0.910962
3.190577 1.454574 5.027195
0.000000 3.103853 1.750106
0.000000 5.000000 1.666667
0.000000 3.333333 0.000000
2.000085 4.997312 0.027244
0.000000 5.000000 0.000000
0.000000 5.000000 3.333333
0.000000 0.000000 3.333333
1.702550 2.468572 5.019759
3.035205 -0.007283 3.422916
1.997416 -0.001086 5.023524
0.000000 2.403264 3.370902
0.000000 1.666667 5.000000
0.000000 3.333333 5.000000
0.000000 0.000000 5.000000
28.060219 0.062253 4.466084
30.056540 0.045206 4.398013
35.907394 0.007413 -0.760178
40.081470 0.074097 4.115108
7.969486 -0.022358 -0.009785
2.002696 4.994124 5.022831
3.156613 1.444323 0.032465
3.992481 -0.019798 0.041113
21.929586 -0.009361 -0.384059
0.000000 5.000000 5.000000
5.975715 -0.033232 0.028153

CELLS 734 3670
4 0 1 2 3
4 0 4 2 5
4 0 3 2 6
4 4 6 0 2
4 4 6 7 0
4 8 9 10 11
4 12 13 14 15
4 16 17 14 18
4 19 20 18 21
4 20 22 21 23
4 24 25 26 23
4 25 27 26 23
4 26 28 29 30
4 28 29 31 32
4 33 34 32 31
4 31 33 35 32
4 31 33 36 35
4 33 37 36 35
4 38 39 40 31
4 41 42 43 38
4 44 42 45 38
4 44 42 38 43
4 46 38 42 41
4 46 47 40 48
4 49 50 51 52
4 53 54 51 55
4 56 54 55 57
4 56 58 59 57
4 60 59 61 62
4 63 61 64 65
4 66 67 68 69
4 67 70 71 72
4 73 74 75 76
4 74 77 75 76
4 77 78 79 80
4 79 81 75 80
4 77 78 80 82
4 77 83 76 84
4 83 85 76 84
4 85 86 74 84
4 74 86 87 84
4 88 89 86 90
4 91 89 88 90
4 86 88 90 92
4 90 86 92 74
4 86 89 74 90
4 93 94 95 74
4 70 74 72 93
4 70 73 71 72
4 74 96 73 72
4 66 97 93 72
4 96 97 72 93
4 96 98 97 93
4 85 96 74 99
4 96 98 93 99
4 98 89 100 93
4 101 102 100 103
4 104 105 101 106
4 107 58 57 60
4 58 107 57 56
4 53 108 109 55
4 56 110 109 54
4 53 111 109 108
4 112 53 109 52
4 111 112 113 53
4 112 111 113 114
4 115 116 114 117
4 40 28 115 117
4 45 117 118 28
4 119 28 25 44
4 120 44 121 122
4 123 121 124 125
4 125 123 126 124
4 127 128 21 124
4 16 129 128 21
4 16 18 14 130
4 16 17 18 19
4 131 17 132 18
4 16 19 18 21
4 133 16 19 134
4 135 134 133 136
4 135 137 136 138
4 137 134 139 140
4 141 142 143 144
4 145 146 147 7
4 142 148 147 146
4 7 146 147 149
4 10 7 9 146
4 145 150 7 151
4 152 151 150 153
4 16 128 154 124
4 124 21 121 133
4 25 28 30 44
4 28 38 45 40
4 45 47 40 42
4 155 45 156 47
4 157 156 47 155
4 155 45 40 117
4 45 42 158 159
4 44 42 43 158
4 119 45 158 159
4 120 44 158 119
4 25 127 21 121
4 25 27 160 30
4 127 25 160 30
4 25 127 121 30
4 44 25 121 30
4 28 30 44 29
4 119 28 44 45
4 119 28 118 25
4 28 24 26 161
4 26 32 29 28
4 28 31 29 38
4 46 38 41 39
4 46 38 39 40
4 28 117 40 45
4 118 28 117 161
4 162 24 118 161
4 118 119 163 164
4 136 119 164 163
4 25 133 21 163
4 128 16 21 124
4 165 166 153 154
4 166 167 168 169
4 167 168 169 170
4 171 168 172 166
4 124 173 126 154
4 123 121 133 124
4 120 125 122 121
4 122 158 44 43
4 47 46 40 42
4 52 50 174 48
4 175 50 174 54
4 176 175 177 178
4 179 60 180 181
4 64 69 63 65
4 68 72 67 66
4 70 73 182 71
4 74 79 183 75
4 184 78 185 79
4 79 184 186 187
4 186 184 188 187
4 184 189 190 191
4 184 78 79 186
4 78 189 184 191
4 189 184 190 188
4 184 78 191 192
4 184 78 192 185
4 192 78 80 185
4 193 80 194 185
4 195 81 196 194
4 81 79 196 194
4 197 187 196 198
4 187 79 185 196
4 79 184 187 185
4 197 199 187 198
4 199 197 187 200
4 199 200 187 186
4 78 201 79 186
4 189 201 87 78
4 202 201 79 74
4 201 74 92 87
4 201 202 92 74
4 201 202 79 186
4 202 203 74 79
4 202 198 203 79
4 204 202 199 203
4 202 203 205 74
4 202 204 205 203
4 182 203 74 205
4 74 203 183 79
4 79 203 183 198
4 79 81 198 183
4 81 79 198 196
4 187 79 196 198
4 202 198 79 186
4 202 204 94 205
4 94 95 205 206
4 207 208 209 210
4 208 207 211 210
4 104 103 211 65
4 104 60 212 213
4 214 215 216 217
4 218 219 220 221
4 222 174 220 221
4 46 39 222 174
4 52 46 40 48
4 40 49 52 48
4 53 49 52 113
4 40 49 155 113
4 155 45 47 40
4 157 47 223 155
4 49 223 224 48
4 52 50 51 54
4 175 54 57 178
4 218 175 54 57
4 225 219 54 57
4 218 175 57 177
4 57 217 219 218
4 219 225 226 57
4 225 227 226 57
4 59 110 57 227
4 59 60 61 228
4 61 60 213 228
4 64 61 213 228
4 63 61 213 64
4 61 104 211 65
4 180 60 104 62
4 58 229 62 180
4 58 60 180 62
4 60 61 104 62
4 60 226 230 212
4 226 60 213 212
4 60 104 212 230
4 179 60 230 104
4 104 211 231 62
4 180 229 62 232
4 180 232 62 231
4 179 60 104 180
4 233 181 105 179
4 181 105 179 230
4 105 214 106 230
4 105 214 230 177
4 215 214 218 217
4 215 217 218 219
4 218 215 219 221
4 218 175 174 54
4 39 52 220 174
4 39 46 52 174
4 115 52 112 35
4 28 115 117 161
4 162 118 116 161
4 24 162 118 163
4 20 19 234 163
4 25 133 163 119
4 120 119 158 235
4 236 119 235 159
4 235 119 158 159
4 119 235 133 136
4 138 235 236 164
4 45 47 42 159
4 46 38 40 42
4 49 50 52 48
4 237 175 176 178
4 181 233 177 176
4 180 179 231 104
4 207 103 65 211
4 207 103 68 65
4 65 66 103 68
4 103 66 97 93
4 66 103 97 63
4 213 104 63 238
4 238 97 103 63
4 104 102 103 238
4 104 106 212 230
4 214 212 106 230
4 214 212 216 106
4 214 212 217 216
4 214 212 230 217
4 226 217 230 212
4 226 60 230 57
4 181 60 57 230
4 179 105 104 230
4 179 105 101 104
4 104 239 103 101
4 239 101 240 100
4 91 241 240 100
4 241 239 240 100
4 239 241 103 100
4 103 210 93 241
4 103 207 93 210
4 210 103 231 239
4 103 239 104 231
4 103 104 63 65
4 65 66 63 103
4 65 66 68 69
4 68 72 66 93
4 96 98 242 97
4 85 96 99 243
4 85 86 99 74
4 86 89 99 74
4 88 86 244 92
4 74 86 92 87
4 201 244 87 92
4 244 86 87 92
4 90 74 92 94
4 94 95 206 245
4 95 209 206 245
4 245 207 95 209
4 208 232 231 211
4 180 104 231 62
4 181 60 107 57
4 54 175 51 178
4 50 52 174 54
4 246 36 52 247
4 246 36 37 35
4 52 31 36 35
4 31 39 52 36
4 39 46 222 41
4 39 222 174 220
4 174 218 220 221
4 218 219 54 220
4 225 219 220 54
4 56 110 54 57
4 110 56 59 57
4 60 59 226 228
4 60 226 213 228
4 57 217 230 226
4 214 217 230 218
4 218 57 230 177
4 181 105 230 177
4 179 60 181 230
4 58 107 180 60
4 229 107 58 248
4 229 107 180 58
4 60 58 59 62
4 58 107 56 248
4 108 56 109 55
4 108 56 55 248
4 107 56 55 57
4 107 181 57 178
4 57 181 177 178
4 181 176 177 178
4 233 181 177 105
4 249 239 101 240
4 91 89 241 100
4 89 91 241 90
4 210 245 93 241
4 245 241 90 93
4 93 94 90 245
4 74 202 92 94
4 205 204 94 206
4 202 198 199 203
4 202 198 186 199
4 199 197 200 250
4 199 186 187 198
4 200 186 188 187
4 184 189 186 188
4 201 189 87 244
4 189 201 78 186
4 201 78 79 87
4 189 78 184 186
4 186 79 187 198
4 74 201 79 87
4 74 79 84 87
4 79 78 84 87
4 77 78 84 79
4 74 77 84 79
4 74 85 84 76
4 83 243 76 85
4 85 96 243 76
4 73 96 74 76
4 96 93 74 99
4 89 93 99 74
4 93 94 74 90
4 93 94 245 95
4 207 95 68 93
4 95 70 68 93
4 95 70 74 205
4 74 70 182 205
4 94 95 74 205
4 241 89 90 93
4 104 179 231 239
4 181 60 180 107
4 107 57 55 178
4 57 54 55 178
4 53 49 51 52
4 40 49 113 52
4 155 47 223 48
4 45 47 159 156
4 119 156 45 159
4 120 44 119 121
4 16 173 124 154
4 166 167 169 145
4 145 7 147 251
4 9 7 252 149
4 253 254 252 255
4 256 253 255 254
4 6 9 252 255
4 253 257 149 252
4 7 258 259 260
4 260 261 251 170
4 169 260 251 170
4 169 251 167 170
4 166 167 145 171
4 16 22 18 130
4 25 24 20 23
4 24 25 118 28
4 119 156 118 45
4 119 28 45 118
4 119 45 44 158
4 44 38 28 29
4 25 28 26 30
4 25 24 26 28
4 24 20 234 163
4 162 24 234 163
4 163 119 118 25
4 235 135 133 136
4 135 134 140 133
4 145 141 153 144
4 145 260 169 151
4 0 258 4 5
4 259 258 262 263
4 264 259 262 263
4 258 7 262 0
4 260 258 259 261
4 258 261 263 259
4 261 258 263 265
4 261 260 251 259
4 167 251 169 145
4 145 260 251 169
4 166 167 171 168
4 16 171 153 140
4 137 135 136 134
4 138 135 235 136
4 235 138 136 164
4 236 119 156 164
4 157 156 159 47
4 155 47 48 40
4 40 49 48 155
4 46 52 174 48
4 247 225 220 54
4 110 225 57 227
4 60 59 57 226
4 104 61 211 62
4 232 211 62 231
4 103 104 211 231
4 239 210 103 241
4 241 93 103 100
4 68 72 93 70
4 103 207 68 93
4 207 103 211 210
4 210 208 231 211
4 103 210 231 211
4 245 207 210 93
4 245 207 209 210
4 245 207 93 95
4 70 95 74 93
4 70 73 74 182
4 182 203 183 74
4 202 74 205 94
4 93 89 90 74
4 89 241 100 93
4 93 98 103 100
4 101 104 102 103
4 104 101 102 106
4 106 238 104 212
4 266 216 212 106
4 106 238 212 266
4 106 238 102 104
4 267 266 238 102
4 97 102 267 238
4 106 238 266 102
4 97 102 238 103
4 97 102 103 98
4 97 102 98 267
4 97 98 242 267
4 96 98 99 242
4 89 98 99 93
4 239 101 100 103
4 104 179 239 101
4 179 249 239 101
4 105 179 101 249
4 233 105 249 179
4 177 181 57 230
4 175 57 177 178
4 175 237 51 178
4 55 54 51 178
4 112 111 109 53
4 112 53 52 113
4 117 115 113 114
4 116 118 117 161
4 115 116 117 161
4 28 115 161 32
4 29 32 26 34
4 26 30 29 27
4 34 26 29 27
4 29 34 31 32
4 31 115 32 35
4 31 115 28 32
4 246 112 52 35
4 246 247 52 54
4 247 110 225 54
4 59 227 57 226
4 213 104 238 212
4 104 103 63 238
4 97 98 103 93
4 70 73 72 74
4 71 182 268 73
4 182 75 268 73
4 182 75 183 268
4 183 81 268 75
4 182 75 74 183
4 79 81 183 75
4 79 81 80 194
4 78 192 80 82
4 192 193 80 82
4 269 193 192 82
4 193 192 80 185
4 80 79 194 185
4 77 74 75 79
4 85 96 76 74
4 96 243 242 99
4 98 102 103 100
4 104 105 106 230
4 214 218 230 177
4 50 175 51 54
4 49 155 223 48
4 157 156 236 159
4 236 119 159 156
4 235 119 164 136
4 236 119 164 235
4 133 235 120 123
4 120 235 133 119
4 135 123 235 133
4 124 173 123 126
4 173 172 126 154
4 166 171 154 172
4 172 171 154 173
4 171 16 154 173
4 171 166 154 153
4 16 171 154 153
4 124 173 16 133
4 124 173 133 123
4 25 133 119 121
4 19 16 133 21
4 163 19 133 21
4 134 19 133 136
4 133 119 136 163
4 133 19 163 136
4 132 20 18 19
4 20 132 234 19
4 20 19 163 21
4 22 20 21 18
4 16 22 21 18
4 128 129 127 21
4 160 129 21 127
4 160 21 25 127
4 25 20 21 23
4 25 27 23 160
4 25 27 30 26
4 23 22 21 160
4 16 129 21 22
4 128 130 165 270
4 128 130 270 129
4 128 130 16 165
4 16 165 153 154
4 17 16 14 153
4 131 17 18 14
4 17 141 153 15
4 12 10 15 153
4 15 17 14 153
4 153 16 14 130
4 16 129 22 130
4 128 130 129 16
4 16 128 165 154
4 151 166 153 165
4 260 145 7 151
4 9 6 252 7
4 7 262 252 149
4 260 259 7 251
4 7 259 147 251
4 264 259 271 149
4 259 7 147 149
4 146 148 147 149
4 271 259 147 149
4 148 271 147 149
4 146 142 143 141
4 144 141 140 139
4 141 134 140 139
4 143 141 144 139
4 142 145 141 146
4 145 142 141 144
4 148 142 143 146
4 145 7 10 146
4 145 150 151 153
4 151 272 150 7
4 151 272 273 150
4 151 272 4 273
4 4 272 2 273
4 151 272 7 4
4 4 260 7 151
4 166 145 151 153
4 166 145 169 151
4 171 166 153 145
4 133 16 140 173
4 124 16 21 133
4 25 21 160 23
4 21 129 160 22
4 121 21 124 127
4 121 120 133 119
4 123 121 125 120
4 123 121 120 133
4 25 133 121 21
4 25 20 163 21
4 118 24 28 161
4 26 28 161 32
4 40 115 28 31
4 115 52 113 112
4 246 112 109 52
4 246 52 109 54
4 56 54 109 55
4 56 107 55 248
4 58 60 59 57
4 63 61 65 104
4 68 72 70 67
4 182 75 73 74
4 77 79 75 80
4 196 79 185 194
4 79 78 185 80
4 77 78 82 84
4 83 77 82 84
4 77 74 84 76
4 96 74 93 72
4 103 66 93 68
4 65 66 69 63
4 63 61 104 213
4 61 60 104 213
4 59 227 226 228
4 274 110 227 225
4 246 36 247 37
4 246 36 35 52
4 52 115 40 31
4 28 31 38 40
4 44 42 158 45
4 120 44 122 158
4 135 133 140 173
4 171 16 173 140
4 171 144 153 140
4 141 144 140 153
4 10 141 15 153
4 10 12 15 13
4 10 8 12 13
4 8 10 12 11
4 8 9 11 255
4 9 253 149 252
4 257 262 149 252
4 262 259 149 7
4 258 7 4 260
4 259 258 7 262
4 262 0 7 252
4 0 6 7 252
4 254 6 252 255
4 0 3 6 252
4 6 3 254 252
4 272 6 11 7
4 4 6 272 7
4 4 6 2 272
4 9 6 11 255
4 9 253 252 255
4 262 264 257 149
4 257 264 275 271
4 259 264 262 149
4 257 264 271 149
4 9 146 7 149
4 10 7 11 9
4 7 12 10 11
4 145 150 153 12
4 12 145 10 153
4 145 146 10 141
4 145 142 147 146
4 171 145 153 144
4 171 142 145 144
4 142 171 145 167
4 142 145 147 167
4 167 145 147 251
4 145 260 7 251
4 145 150 12 7
4 12 145 7 10
4 12 152 153 14
4 152 153 14 130
4 152 151 153 165
4 165 152 276 270
4 152 151 165 276
4 165 152 270 130
4 152 151 276 150
4 276 150 151 273
4 272 7 11 150
4 7 12 11 150
4 153 150 152 12
4 165 16 153 130
4 165 152 130 153
4 15 12 153 14
4 13 131 14 15
4 17 131 15 14
4 17 132 18 19
4 25 24 163 20
4 25 24 118 163
4 119 156 164 118
4 118 117 45 156
4 155 45 117 156
4 113 40 117 155
4 50 49 224 48
4 49 50 224 51
4 50 237 224 51
4 237 50 175 51
4 52 54 220 174
4 52 247 220 54
4 39 247 220 52
4 39 247 52 36
4 115 52 35 31
4 40 115 52 113
4 40 115 113 117
4 115 112 113 114
4 53 52 51 54
4 54 53 109 55
4 52 53 109 54
4 110 246 109 54
4 247 110 54 246
4 247 110 274 225
4 246 274 37 247
4 247 110 246 274
4 110 225 54 57
4 57 217 226 219
4 57 217 218 230
4 219 218 54 57
4 218 54 174 220
4 46 39 52 40
4 39 31 52 40
4 38 42 45 40
4 28 38 44 45
4 121 25 44 119
4 123 135 173 133
4 134 153 140 16
4 134 16 140 133
4 137 135 134 140
4 134 153 141 140
4 134 153 16 17
4 16 17 19 134
4 134 153 17 141
4 153 145 10 141
4 6 9 11 7
4 258 7 0 4
4 1 0 2 5

CELL_TYPES 734
10
10
10
10
10
10
10
10
10
10
10
10
10
10
10
10
10
10
10
10
10
10
10
10
10
10
10
10
10
10
10
10
10
10
10
10
10
10
10
10
10
10
10
10
10
10
10
10
10
10
10
10
10
10
10
10
10
10
10
10
10
10
10
10
10
10
10
10
10
10
10
10
10
10
10
10
10
10
10
10
10
10
10
10
10
10
10
10
10
10
10
10
10
10
10
10
10
10
10
10
10
10
10
10
10
10
10
10
10
10
10
10
10
10
10
10
10
10
10
10
10
10
10
10
10
10
10
10
10
10
10
10
10
10
10
10
10
10
10
10
10
10
10
10
10
10
10
10
10
10
10
10
10
10
10
10
10
10
10
10
10
10
10
10
10
10
10
10
10
10
10
10
10
10
10
10
10
10
10
10
10
10
10
10
10
10
10
10
10
10
10
10
10
10
10
10
10
10
10
10
10
10
10
10
10
10
10
10
10
10
10
10
10
10
10
10
10
10
10
10
10
10
10
10
10
10
10
10
10
10
10
10
10
10
10
10
10
10
10
10
10
10
10
10
10
10
10
10
10
10
10
10
10
10
10
10
10
10
10
10
10
10
10
10
10
10
10
10
10
10
10
10
10
10
10
10
10
10
10
10
10
10
10
10
10
10
10
10
10
10
10
10
10
10
10
10
10
10
10
10
10
10
10
10
10
10
10
10
10
10
10
10
10
10
10
10
10
10
10
10
10
10
10
10
10
10
10
10
10
10
10
10
10
10
10
10
10
10
10
10
10
10
10
10
10
10
10
10
10
10
10
10
10
10
10
10
10
10
10
10
10
10
10
10
10
10
10
10
10
10
10
10
10
10
10
10
10
10
10
10
10
10
10
10
10
10
10
10
10
10
10
10
10
10
10
10
10
10
10
10
10
10
10
10
10
10
10
10
10
10
10
10
10
10
10
10
10
10
10
10
10
10
10
10
10
10
10
10
10
10
10
10
10
10
10
10
10
10
10
10
10
10
10
10
10
10
10
10
10
10
10
10
10
10
10
10
10
10
10
10
10
10
10
10
10
10
10
10
10
10
10
10
10
10
10
10
10
10
10
10
10
10
10
10
10
10
10
10
10
10
10
10
10
10
10
10
10
10
10
10
10
10
10
10
10
10
10
10
10
10
10
10
10
10
10
10
10
10
10
10
10
10
10
10
10
10
10
10
10
10
10
10
10
10
10
10
10
10
10
10
10
10
10
10
10
10
10
10
10
10
10
10
10
10
10
10
10
10
10
10
10
10
10
10
10
10
10
10
10
10
10
10
10
10
10
10
10
10
10
10
10
10
10
10
10
10
10
10
10
10
10
10
10
10
10
10
10
10
10
10
10
10
10
10
10
10
10
10
10
10
10
10
10
10
10
10
10
10
10
10
10
10
10
10
10
10
10
10
10
10
10
10
10
10
10
10
10
10
10
10
10
10
10
10
10
10
10
10
10
10
10
10
10
10
10
10
10
10
10
10
10
10
10
10
10
10
10
10
10
10
10
10
10
10
10
10
10
10
10
10
10
10
10
10
10
10
10
10
10
10
10
10
10
10
10
10
10
10
10
10
10
10
10
10
10
10
10
10
10
10
10
10
10
10
10
10
10
10
10
10
10
10
10
10
10
10
10
10
10
10
10
10
10
10

CELL_DATA 734
SCALARS potentialEnergy FLOAT 1
LOOKUP_TABLE default
86.587914
100.078049
132.263275
235.663391
286.499664
111.464638
199.618103
117.379196
390.209686
236.017471
83.778259
33.765919
13.288582
107.754875
84.452606
118.127045
30.521997
19.285978
122.007713
98.736832
99.343826
52.294159
219.330765
150.065292
115.444641
37.726603
122.960922
84.141670
69.932339
27.671263
89.968170
103.085640
122.160881
79.982918
123.858063
32.662041
86.897423
82.514282
66.411987
64.269802
58.184536
53.106949
43.041027
43.291416
74.899849
97.875763
81.987732
97.862045
113.410629
49.259514
195.341293
327.469208
175.332245
150.640732
226.258179
115.451881
75.046394
34.854650
178.959427
95.792221
29.322145
57.768097
33.239620
104.368935
37.061687
72.646278
143.284164
63.496754
79.043503
99.203087
101.923744
27.693306
28.781361
119.636230
68.674892
120.713394
108.272614
49.582951
156.338669
78.998871
112.721886
39.984585
66.317333
81.979240
204.425446
179.433823
276.960846
204.257660
257.139771
219.721436
195.890213
65.473469
64.675724
85.687195
82.114212
60.787647
95.056969
87.848785
96.415443
66.663464
40.794168
133.839531
23.140425
37.609686
159.658096
25.912183
30.922060
22.250130
36.798246
54.586128
182.378159
93.168839
74.918007
54.372803
68.626915
137.329796
187.168884
122.322327
94.012192
67.876129
72.095898
30.326254
88.982552
179.866760
252.253983
318.924561
46.543365
98.974541
74.817734
118.316010
218.439285
93.453178
90.737617
37.415558
80.063103
45.476421
77.385712
53.328133
152.166824
53.921040
102.387421
107.509338
62.733383
153.773056
42.970444
100.073067
96.504219
94.196472
143.008331
69.868061
235.027023
208.957474
151.118057
73.313179
83.566208
151.234802
118.561440
170.280472
171.344894
73.348724
61.968712
101.301605
45.550411
85.494606
67.962418
27.256094
80.039932
50.232357
44.574787
51.702374
129.130875
85.114365
111.002609
145.938843
52.857727
62.687958
31.815395
36.962690
58.005173
31.478571
80.547432
112.033890
110.830170
75.941551
43.124893
52.709827
106.176498
112.942757
90.696419
165.716537
74.806641
307.105652
131.169334
121.249496
84.803261
71.333336
50.957619
95.608643
110.667374
317.337616
75.990753
64.793186
110.383530
109.354027
184.741394
43.080208
34.820925
52.621338
76.992607
48.328106
47.262833
210.619095
224.766785
173.951523
94.946945
60.517433
32.165184
35.880949
98.515106
187.022964
51.566116
52.921513
99.045464
101.172623
40.734287
66.574936
105.365700
43.938156
99.313301
101.135696
100.212524
103.325211
76.995216
76.563034
51.760918
360.104553
96.201599
99.839272
70.238407
76.007477
90.589066
271.496338
96.287178
56.869984
131.605667
89.521652
128.444893
50.676945
103.336304
121.284561
43.572632
73.522121
59.950794
115.907684
117.709694
42.574680
26.349106
56.562057
74.320869
236.724625
87.085999
103.189110
99.613663
66.155956
54.561058
106.944695
127.784088
98.697388
141.964188
60.784950
66.630440
55.088219
52.462357
99.899628
68.759590
61.813923
91.102135
104.920044
34.613720
130.711342
110.578522
33.697615
140.010254
38.722712
55.550751
88.665665
24.263672
40.146582
69.332211
36.618006
51.052128
64.869938
48.823772
104.412285
69.358936
18.002402
51.895275
74.715446
37.406771
23.720312
66.808285
87.212891
144.875534
39.337097
69.055294
97.361877
154.995041
91.836258
85.815201
123.565666
135.679817
171.273102
42.642998
61.956497
69.793716
29.931543
32.086493
83.569893
186.336044
278.033051
155.266495
192.943695
111.070457
74.447716
43.065701
79.821320
76.835686
86.473900
70.521820
84.299393
55.105381
36.219311
63.693424
92.536224
186.036514
77.778923
81.950920
115.401039
76.376358
106.042519
79.745659
164.389359
42.654930
189.287094
108.228249
133.414986
143.653320
144.111313
65.085468
26.152147
51.770939
49.206451
157.577408
163.074600
186.339432
61.596401
133.249825
144.268906
154.726196
92.018501
100.360466
131.624382
49.925201
72.318764
174.369705
167.530624
129.860451
98.711441
135.553177
87.778214
73.083199
69.524269
116.298386
328.497467
137.867332
190.021210
127.997963
109.345695
238.972015
134.588470
280.157837
98.106201
56.060169
197.815216
408.114349
155.568115
157.941696
57.148441
44.162411
88.334297
159.949631
120.046547
125.326073
48.447803
112.175529
137.631760
130.204727
71.113506
66.460415
84.192589
164.949799
88.214607
260.768219
182.687500
177.085510
142.023865
85.986992
123.760895
86.774887
308.873535
156.661713
233.375259
173.805420
62.004375
165.576920
57.248638
112.048286
97.687569
182.490677
196.605316
69.154549
63.101761
70.476063
43.321491
54.486584
48.473309
54.723423
89.519180
165.943863
134.821907
59.706459
116.069595
59.815041
57.239384
101.904083
67.819523
112.608391
114.685188
53.510532
118.839149
67.560783
108.293076
181.423233
111.169991
38.655273
71.896946
94.980789
25.916926
42.877453
102.619255
147.767181
108.208931
45.284180
132.404167
138.776764
77.664757
72.157162
104.216270
206.826904
126.567772
61.147701
37.743994
39.187469
76.836624
216.659195
75.833015
19.743628
57.113609
58.078060
116.627602
73.828686
33.093201
37.887589
87.858376
75.341568
68.009003
145.254349
196.845596
78.449341
108.036964
40.503336
187.114990
215.600098
67.628403
86.503685
57.580318
107.209305
77.388725
157.250076
88.938148
75.279594
38.268400
70.628059
52.543213
28.177977
148.644623
82.299706
425.583313
72.179111
65.066441
122.845322
70.677208
98.685326
90.260323
55.285812
59.859657
81.618210
162.601746
117.828033
100.239395
38.239334
41.412437
38.160423
31.565908
45.788445
64.495022
24.539846
33.135027
30.482801
115.303818
152.257156
111.707840
109.559128
119.749229
96.689629
87.736786
112.340302
132.000122
53.645561
70.254627
178.752045
209.816650
150.102692
158.272751
149.002930
65.171635
50.089314
40.148970
242.737793
49.223183
42.779499
154.260956
78.490402
126.135574
135.383034
91.925766
60.748917
150.732147
67.494793
112.586418
180.732620
245.148483
43.140285
167.976334
79.838043
90.706978
145.902130
194.870987
310.063354
217.841934
155.220978
135.423782
209.944717
324.139648
219.677902
295.765961
331.843048
61.575932
84.417763
72.990162
92.439400
224.952026
142.854660
150.604553
248.418350
107.327599
261.725357
139.994385
140.882080
123.383682
244.344818
164.438385
63.847363
166.174469
78.051338
104.693855
163.067764
114.905731
43.420715
28.190834
107.190880
79.979973
104.880806
164.149994
65.205196
166.363266
65.691193
99.982979
172.224823
92.551888
131.826744
125.027260
73.818653
24.805231
34.265451
48.742966
120.601364
78.916939
136.350922
95.296669
134.085770
94.295433
76.897621
72.725254
76.101799
48.297634
66.507542
76.808090
94.591194
53.350658
45.683788
37.578718
154.541214
130.966568
125.650375
57.242409
50.476189
117.164429
63.010231
114.496750
109.565727
41.112444
385.099640
223.702835
129.289261
159.446960
174.888077
333.780182
144.626755
316.741913
131.363068
214.505219
145.743942
128.176277
123.910881
156.319382
170.461334
123.603920
175.531723
189.383484
178.152969
138.021027
195.807465
212.946289
171.322769
239.028015
241.183075
261.165115
87.918877
71.400490
340.742279
75.127785
148.059387
266.161774
218.058289
220.400314
194.163467
309.046936
333.037354
209.552231
100.319672
195.014816
107.381775
41.392921
114.328888
137.932953
207.535217
141.594299
201.570969
433.162537
70.578865
310.854156
390.154999
130.592949
90.404839
93.538605
177.675888
145.286499
54.241886
120.211937
78.344833
192.568512
49.293919
62.396515
118.412575
45.961403
132.890045
128.606445
47.738773
58.730862
119.787239
176.392075
246.300583
64.791431
82.490807
80.210381
147.051285
140.315796
184.577118
80.222519
72.430954
72.964344
88.698593
84.471428
151.890472
81.535065
127.858116
106.382660
302.419708
135.941750
94.403503
51.886612
54.019409
155.448959
92.349823
73.893703
111.936623
86.938477
127.248260
68.671680
30.277407
257.218933
200.038452
70.169220

