# vtk DataFile Version 3.1
Tetrahedral Mesh Visualization
ASCII
DATASET UNSTRUCTURED_GRID

POINTS 277 FLOAT
0.000000 1.378113 1.754166
0.000000 0.000000 0.000000
1.998142 -0.010822 -0.001702
0.000000 1.666667 0.000000
2.414647 -0.011927 1.737999
0.000000 0.000000 1.666667
1.687178 2.465762 0.000495
3.000284 2.445582 2.322398
3.988767 4.987730 -0.010613
3.079555 4.995198 1.649459
5.206518 4.984187 1.590732
3.473207 3.167393 -0.009168
5.387455 3.289967 -0.024428
5.979135 4.987701 -0.029910
7.339998 3.318910 -0.043739
6.958940 4.990256 1.287048
9.247529 2.171306 1.964042
8.682782 4.994986 1.552440
9.316142 3.327249 -0.070037
10.646657 4.993069 1.577130
11.304816 3.325695 -0.089130
11.097392 1.857547 1.474360
10.640279 1.658929 -0.081105
12.628826 1.646749 -0.096220
13.292603 3.312781 -0.109780
12.954695 1.856438 1.395321
14.619386 1.634809 -0.125289
13.947907 -0.030633 -0.103204
15.451744 2.110336 1.550254
15.308967 -0.030449 1.534293
13.313461 -0.019269 1.575581
17.273441 -0.043813 1.416324
16.610428 1.617680 -0.171645
17.940001 -0.041886 -0.218118
15.935063 -0.048399 -0.139529
18.618814 1.624402 -0.242576
18.981333 -0.038280 1.068342
19.952320 -0.035903 -0.269959
16.749804 -0.038628 3.123234
19.019753 -0.049870 2.852850
17.716936 2.641549 2.734262
18.053152 -0.038172 4.775101
16.730892 1.630287 4.818921
16.047522 -0.021939 4.846545
14.693512 -0.020977 3.219803
15.792290 2.853935 3.200700
18.782248 1.653533 4.745955
17.361036 3.301636 4.796773
19.325665 3.352876 4.730715
19.338058 4.963399 3.059617
21.030296 3.654953 4.691008
21.334490 4.979990 3.018895
19.627947 2.451266 2.081434
20.641859 4.971486 1.367592
21.916197 2.490539 2.161886
22.645546 4.980904 1.331118
23.258835 3.371807 -0.337008
23.973101 2.443051 1.953470
24.977261 3.669369 -0.365200
24.970276 1.883994 -0.355477
25.980600 2.496374 1.364010
27.247244 1.691445 -0.385717
26.693205 3.376549 -0.379322
29.255829 -0.004759 1.229475
27.978333 -0.008532 -0.383893
29.292274 1.666296 -0.382986
30.967684 -0.007445 0.943393
31.977177 -0.012752 -0.376718
31.289883 1.650850 -0.382438
29.979256 -0.008938 -0.379180
33.253033 1.631581 -0.378587
33.975849 -0.020154 -0.377141
32.662945 -0.017023 1.242706
34.576664 -0.021631 1.311490
34.988533 2.386497 2.153838
36.492203 -0.028513 1.437774
35.128010 -0.011878 3.010568
36.821575 -0.018656 3.158311
38.303543 2.504084 4.590912
37.686974 2.135123 1.788619
38.291588 -0.034874 2.143365
37.976604 -0.051581 -0.383698
37.993233 -0.010557 4.613144
35.993492 -0.005460 4.620698
36.563667 1.737384 4.606844
34.933941 1.337659 4.619142
34.855343 3.135047 4.610057
36.766319 3.471336 4.600873
34.010387 5.002934 4.597943
32.699486 3.304904 4.610075
33.276646 4.991537 2.946013
32.005322 4.999358 4.600518
35.164951 4.985499 2.989418
32.200275 2.588260 2.044715
34.597935 4.984044 1.295175
32.625515 3.311199 -0.386981
33.194160 -0.001945 2.946949
30.971844 -0.000298 2.738796
31.313177 1.663522 4.628093
33.245319 1.610459 4.625685
30.670965 3.335617 4.624573
28.671268 3.337562 4.620744
29.330595 1.667259 4.628874
30.015635 2.495377 2.100322
27.960587 2.483838 2.103286
26.676113 3.342053 4.626652
27.336710 1.670929 4.636994
24.651356 4.989401 1.293851
21.955341 4.970520 -0.322564
21.294460 3.313831 -0.298093
22.695854 1.681141 -0.324567
19.946056 4.960880 -0.281006
19.291393 3.289912 -0.258561
18.638031 4.952771 1.414506
17.942875 4.947729 -0.228216
17.281462 3.281420 -0.199881
15.948938 4.960376 -0.164764
16.640020 4.958376 1.481004
14.641435 4.973029 1.532084
13.705107 2.937851 3.157968
13.028622 1.314192 4.906726
12.676043 -0.007380 3.250212
14.032588 -0.009439 4.901278
11.304227 1.615094 4.920307
10.666433 0.002408 3.264931
12.025536 0.001480 4.924873
10.024451 0.009361 4.939023
11.307658 -0.007937 1.593734
9.290050 -0.003510 1.611372
9.961333 -0.004810 -0.068683
8.656478 1.657644 -0.062672
7.972585 4.994084 -0.053825
9.969959 4.997779 -0.073134
11.230503 2.639169 3.202864
9.269898 5.003833 3.236107
10.771859 3.309863 4.921270
11.325162 4.994584 3.242459
10.035432 5.002793 4.926474
12.035425 4.994867 4.904166
8.030117 5.003415 4.945984
8.771661 3.397122 4.937767
6.976884 4.992487 3.075340
5.381890 3.364645 4.974967
6.026619 4.995044 4.970893
7.060586 3.680410 4.958030
5.149412 2.360967 3.121838
4.630758 4.988131 3.277748
3.498754 3.191663 4.991793
4.017175 4.993306 4.988976
2.371161 4.991053 3.278452
4.818172 1.592911 -0.015674
4.895433 -0.010354 1.868704
6.697997 1.639287 -0.039103
7.010460 2.549950 2.154777
8.660786 0.002067 3.291766
17.342104 4.961761 3.122972
15.340457 4.972244 3.182745
16.048220 4.971776 4.826751
14.749669 1.594156 4.878820
15.304570 3.283250 4.853253
11.955832 -0.017830 -0.081455
15.286286 3.294829 -0.143492
13.959475 4.979415 -0.122053
12.643703 4.984215 1.565423
13.338795 4.984581 3.220677
7.225905 -0.005463 1.660182
6.675835 0.001333 3.358861
4.924632 1.652053 4.982414
6.016422 0.013516 4.980044
4.917339 -0.006818 3.653633
4.006848 0.002665 4.994061
7.075507 1.893001 4.969496
8.027134 0.007106 4.961205
9.301151 1.701342 4.940760
21.040489 1.861703 4.699835
22.738270 3.380459 4.668200
24.027136 5.008714 4.635798
24.691067 3.347512 4.643876
23.335558 4.992297 2.985202
27.334646 4.996730 2.942134
26.657980 4.987442 1.275979
25.335077 5.001343 2.952160
35.139023 1.570769 -0.378146
36.818562 1.409030 -0.388379
40.008114 3.213768 3.200438
39.994987 1.589995 2.197336
38.314339 4.971023 2.112010
39.995583 3.207795 1.474526
40.016056 4.965272 2.904091
38.030434 4.974170 4.585217
40.031876 4.963113 4.574125
40.018250 3.306422 4.582348
40.003258 1.647995 4.601719
39.984306 -0.038269 2.944208
39.984444 -0.051454 1.281652
39.980160 -0.053707 -0.393745
39.978832 1.604404 -0.396070
39.980225 3.277593 -0.423059
38.290436 2.411044 -0.408404
37.984577 4.947247 -0.421663
39.995533 4.960173 1.236903
36.848373 4.982181 3.138661
36.517723 4.974804 1.418555
36.499786 3.135540 -0.391421
35.993336 4.966631 -0.397932
34.586456 3.275636 -0.384106
33.995918 4.974236 -0.400450
30.638453 3.317354 -0.391108
29.988255 4.984536 -0.397815
31.992804 4.981934 -0.396327
30.648344 4.983747 1.267879
28.647854 3.332963 -0.382181
26.728500 0.002905 3.012747
27.250200 0.000335 1.305053
25.339222 1.674322 4.646401
24.039217 -0.009491 4.658730
26.025908 0.000497 4.640076
25.019638 -0.006259 3.320215
23.303257 1.689508 4.663304
23.295454 -0.009329 3.049039
21.284727 -0.027945 3.007139
22.052746 -0.024693 4.680353
20.054047 -0.042166 4.718503
18.049345 4.963774 4.768563
20.035404 4.968369 4.713913
22.725889 -0.013881 1.365166
24.993353 -0.002681 1.525494
23.964722 -0.005550 -0.342871
25.972132 0.003440 -0.376950
25.982613 4.981450 -0.383499
25.713848 2.237850 3.123596
28.656683 4.991584 1.278496
27.989141 4.985239 -0.391464
26.020744 5.018376 4.608109
11.969954 4.991380 -0.095548
13.034882 3.102808 4.894466
14.039248 4.988629 4.873549
22.027676 4.983922 4.675618
28.728909 -0.005215 2.930774
29.327749 5.000583 2.946652
30.007227 5.011731 4.612091
31.311111 4.990390 2.939637
31.993507 0.008397 4.636291
33.995834 0.007651 4.631084
36.015579 4.992755 4.591729
32.632458 4.981382 1.273410
20.644110 1.637310 -0.291629
20.716103 -0.030034 1.322195
23.963999 4.977025 -0.359900
28.008270 5.002872 4.613394
39.978233 4.954868 -0.424764
3.191629 1.469576 4.994352
0.000000 3.103853 1.750106
0.000000 5.000000 1.666667
0.000000 3.333333 0.000000
2.000592 5.001887 0.005857
0.000000 5.000000 0.000000
0.000000 5.000000 3.333333
0.000000 0.000000 3.333333
1.702517 2.467842 4.998411
3.039260 -0.004122 3.392817
1.999527 0.003796 5.004363
0.000000 2.403264 3.370902
0.000000 1.666667 5.000000
0.000000 3.333333 5.000000
0.000000 0.000000 5.000000
28.008938 0.000692 4.631166
29.997789 -0.000455 4.626320
35.974857 -0.042661 -0.375003
39.984989 -0.022804 4.613201
7.965950 -0.005955 -0.046605
2.003502 4.994409 4.996294
3.146489 1.437630 -0.005718
3.982578 -0.024327 -0.000177
21.962973 -0.022982 -0.312061
0.000000 5.000000 5.000000
5.968933 -0.014430 -0.023049

CELLS 734 3670
4 0 1 2 3
4 0 4 2 5
4 0 3 2 6
4 4 6 0 2
4 4 6 7 0
4 8 9 10 11
4 12 13 14 15
4 16 17 14 18
4 19 20 18 21
4 20 22 21 23
4 24 25 26 23
4 25 27 26 23
4 26 28 29 30
4 28 29 31 32
4 33 34 32 31
4 31 33 35 32
4 31 33 36 35
4 33 37 36 35
4 38 39 40 31
4 41 42 43 38
4 44 42 45 38
4 44 42 38 43
4 46 38 42 41
4 46 47 40 48
4 49 50 51 52
4 53 54 51 55
4 56 54 55 57
4 56 58 59 57
4 60 59 61 62
4 63 61 64 65
4 66 67 68 69
4 67 70 71 72
4 73 74 75 76
4 74 77 75 76
4 77 78 79 80
4 79 81 75 80
4 77 78 80 82
4 77 83 76 84
4 83 85 76 84
4 85 86 74 84
4 74 86 87 84
4 88 89 86 90
4 91 89 88 90
4 86 88 90 92
4 90 86 92 74
4 86 89 74 90
4 93 94 95 74
4 70 74 72 93
4 70 73 71 72
4 74 96 73 72
4 66 97 93 72
4 96 97 72 93
4 96 98 97 93
4 85 96 74 99
4 96 98 93 99
4 98 89 100 93
4 101 102 100 103
4 104 105 101 106
4 107 58 57 60
4 58 107 57 56
4 53 108 109 55
4 56 110 109 54
4 53 111 109 108
4 112 53 109 52
4 111 112 113 53
4 112 111 113 114
4 115 116 114 117
4 40 28 115 117
4 45 117 118 28
4 119 28 25 44
4 120 44 121 122
4 123 121 124 125
4 125 123 126 124
4 127 128 21 124
4 16 129 128 21
4 16 18 14 130
4 16 17 18 19
4 131 17 132 18
4 16 19 18 21
4 133 16 19 134
4 135 134 133 136
4 135 137 136 138
4 137 134 139 140
4 141 142 143 144
4 145 146 147 7
4 142 148 147 146
4 7 146 147 149
4 10 7 9 146
4 145 150 7 151
4 152 151 150 153
4 16 128 154 124
4 124 21 121 133
4 25 28 30 44
4 28 38 45 40
4 45 47 40 42
4 155 45 156 47
4 157 156 47 155
4 155 45 40 117
4 45 42 158 159
4 44 42 43 158
4 119 45 158 159
4 120 44 158 119
4 25 127 21 121
4 25 27 160 30
4 127 25 160 30
4 25 127 121 30
4 44 25 121 30
4 28 30 44 29
4 119 28 44 45
4 119 28 118 25
4 28 24 26 161
4 26 32 29 28
4 28 31 29 38
4 46 38 41 39
4 46 38 39 40
4 28 117 40 45
4 118 28 117 161
4 162 24 118 161
4 118 119 163 164
4 136 119 164 163
4 25 133 21 163
4 128 16 21 124
4 165 166 153 154
4 166 167 168 169
4 167 168 169 170
4 171 168 172 166
4 124 173 126 154
4 123 121 133 124
4 120 125 122 121
4 122 158 44 43
4 47 46 40 42
4 52 50 174 48
4 175 50 174 54
4 176 175 177 178
4 179 60 180 181
4 64 69 63 65
4 68 72 67 66
4 70 73 182 71
4 74 79 183 75
4 184 78 185 79
4 79 184 186 187
4 186 184 188 187
4 184 189 190 191
4 184 78 79 186
4 78 189 184 191
4 189 184 190 188
4 184 78 191 192
4 184 78 192 185
4 192 78 80 185
4 193 80 194 185
4 195 81 196 194
4 81 79 196 194
4 197 187 196 198
4 187 79 185 196
4 79 184 187 185
4 197 199 187 198
4 199 197 187 200
4 199 200 187 186
4 78 201 79 186
4 189 201 87 78
4 202 201 79 74
4 201 74 92 87
4 201 202 92 74
4 201 202 79 186
4 202 203 74 79
4 202 198 203 79
4 204 202 199 203
4 202 203 205 74
4 202 204 205 203
4 182 203 74 205
4 74 203 183 79
4 79 203 183 198
4 79 81 198 183
4 81 79 198 196
4 187 79 196 198
4 202 198 79 186
4 202 204 94 205
4 94 95 205 206
4 207 208 209 210
4 208 207 211 210
4 104 103 211 65
4 104 60 212 213
4 214 215 216 217
4 218 219 220 221
4 222 174 220 221
4 46 39 222 174
4 52 46 40 48
4 40 49 52 48
4 53 49 52 113
4 40 49 155 113
4 155 45 47 40
4 157 47 223 155
4 49 223 224 48
4 52 50 51 54
4 175 54 57 178
4 218 175 54 57
4 225 219 54 57
4 218 175 57 177
4 57 217 219 218
4 219 225 226 57
4 225 227 226 57
4 59 110 57 227
4 59 60 61 228
4 61 60 213 228
4 64 61 213 228
4 63 61 213 64
4 61 104 211 65
4 180 60 104 62
4 58 229 62 180
4 58 60 180 62
4 60 61 104 62
4 60 226 230 212
4 226 60 213 212
4 60 104 212 230
4 179 60 230 104
4 104 211 231 62
4 180 229 62 232
4 180 232 62 231
4 179 60 104 180
4 233 181 105 179
4 181 105 179 230
4 105 214 106 230
4 105 214 230 177
4 215 214 218 217
4 215 217 218 219
4 218 215 219 221
4 218 175 174 54
4 39 52 220 174
4 39 46 52 174
4 115 52 112 35
4 28 115 117 161
4 162 118 116 161
4 24 162 118 163
4 20 19 234 163
4 25 133 163 119
4 120 119 158 235
4 236 119 235 159
4 235 119 158 159
4 119 235 133 136
4 138 235 236 164
4 45 47 42 159
4 46 38 40 42
4 49 50 52 48
4 237 175 176 178
4 181 233 177 176
4 180 179 231 104
4 207 103 65 211
4 207 103 68 65
4 65 66 103 68
4 103 66 97 93
4 66 103 97 63
4 213 104 63 238
4 238 97 103 63
4 104 102 103 238
4 104 106 212 230
4 214 212 106 230
4 214 212 216 106
4 214 212 217 216
4 214 212 230 217
4 226 217 230 212
4 226 60 230 57
4 181 60 57 230
4 179 105 104 230
4 179 105 101 104
4 104 239 103 101
4 239 101 240 100
4 91 241 240 100
4 241 239 240 100
4 239 241 103 100
4 103 210 93 241
4 103 207 93 210
4 210 103 231 239
4 103 239 104 231
4 103 104 63 65
4 65 66 63 103
4 65 66 68 69
4 68 72 66 93
4 96 98 242 97
4 85 96 99 243
4 85 86 99 74
4 86 89 99 74
4 88 86 244 92
4 74 86 92 87
4 201 244 87 92
4 244 86 87 92
4 90 74 92 94
4 94 95 206 245
4 95 209 206 245
4 245 207 95 209
4 208 232 231 211
4 180 104 231 62
4 181 60 107 57
4 54 175 51 178
4 50 52 174 54
4 246 36 52 247
4 246 36 37 35
4 52 31 36 35
4 31 39 52 36
4 39 46 222 41
4 39 222 174 220
4 174 218 220 221
4 218 219 54 220
4 225 219 220 54
4 56 110 54 57
4 110 56 59 57
4 60 59 226 228
4 60 226 213 228
4 57 217 230 226
4 214 217 230 218
4 218 57 230 177
4 181 105 230 177
4 179 60 181 230
4 58 107 180 60
4 229 107 58 248
4 229 107 180 58
4 60 58 59 62
4 58 107 56 248
4 108 56 109 55
4 108 56 55 248
4 107 56 55 57
4 107 181 57 178
4 57 181 177 178
4 181 176 177 178
4 233 181 177 105
4 249 239 101 240
4 91 89 241 100
4 89 91 241 90
4 210 245 93 241
4 245 241 90 93
4 93 94 90 245
4 74 202 92 94
4 205 204 94 206
4 202 198 199 203
4 202 198 186 199
4 199 197 200 250
4 199 186 187 198
4 200 186 188 187
4 184 189 186 188
4 201 189 87 244
4 189 201 78 186
4 201 78 79 87
4 189 78 184 186
4 186 79 187 198
4 74 201 79 87
4 74 79 84 87
4 79 78 84 87
4 77 78 84 79
4 74 77 84 79
4 74 85 84 76
4 83 243 76 85
4 85 96 243 76
4 73 96 74 76
4 96 93 74 99
4 89 93 99 74
4 93 94 74 90
4 93 94 245 95
4 207 95 68 93
4 95 70 68 93
4 95 70 74 205
4 74 70 182 205
4 94 95 74 205
4 241 89 90 93
4 104 179 231 239
4 181 60 180 107
4 107 57 55 178
4 57 54 55 178
4 53 49 51 52
4 40 49 113 52
4 155 47 223 48
4 45 47 159 156
4 119 156 45 159
4 120 44 119 121
4 16 173 124 154
4 166 167 169 145
4 145 7 147 251
4 9 7 252 149
4 253 254 252 255
4 256 253 255 254
4 6 9 252 255
4 253 257 149 252
4 7 258 259 260
4 260 261 251 170
4 169 260 251 170
4 169 251 167 170
4 166 167 145 171
4 16 22 18 130
4 25 24 20 23
4 24 25 118 28
4 119 156 118 45
4 119 28 45 118
4 119 45 44 158
4 44 38 28 29
4 25 28 26 30
4 25 24 26 28
4 24 20 234 163
4 162 24 234 163
4 163 119 118 25
4 235 135 133 136
4 135 134 140 133
4 145 141 153 144
4 145 260 169 151
4 0 258 4 5
4 259 258 262 263
4 264 259 262 263
4 258 7 262 0
4 260 258 259 261
4 258 261 263 259
4 261 258 263 265
4 261 260 251 259
4 167 251 169 145
4 145 260 251 169
4 166 167 171 168
4 16 171 153 140
4 137 135 136 134
4 138 135 235 136
4 235 138 136 164
4 236 119 156 164
4 157 156 159 47
4 155 47 48 40
4 40 49 48 155
4 46 52 174 48
4 247 225 220 54
4 110 225 57 227
4 60 59 57 226
4 104 61 211 62
4 232 211 62 231
4 103 104 211 231
4 239 210 103 241
4 241 93 103 100
4 68 72 93 70
4 103 207 68 93
4 207 103 211 210
4 210 208 231 211
4 103 210 231 211
4 245 207 210 93
4 245 207 209 210
4 245 207 93 95
4 70 95 74 93
4 70 73 74 182
4 182 203 183 74
4 202 74 205 94
4 93 89 90 74
4 89 241 100 93
4 93 98 103 100
4 101 104 102 103
4 104 101 102 106
4 106 238 104 212
4 266 216 212 106
4 106 238 212 266
4 106 238 102 104
4 267 266 238 102
4 97 102 267 238
4 106 238 266 102
4 97 102 238 103
4 97 102 103 98
4 97 102 98 267
4 97 98 242 267
4 96 98 99 242
4 89 98 99 93
4 239 101 100 103
4 104 179 239 101
4 179 249 239 101
4 105 179 101 249
4 233 105 249 179
4 177 181 57 230
4 175 57 177 178
4 175 237 51 178
4 55 54 51 178
4 112 111 109 53
4 112 53 52 113
4 117 115 113 114
4 116 118 117 161
4 115 116 117 161
4 28 115 161 32
4 29 32 26 34
4 26 30 29 27
4 34 26 29 27
4 29 34 31 32
4 31 115 32 35
4 31 115 28 32
4 246 112 52 35
4 246 247 52 54
4 247 110 225 54
4 59 227 57 226
4 213 104 238 212
4 104 103 63 238
4 97 98 103 93
4 70 73 72 74
4 71 182 268 73
4 182 75 268 73
4 182 75 183 268
4 183 81 268 75
4 182 75 74 183
4 79 81 183 75
4 79 81 80 194
4 78 192 80 82
4 192 193 80 82
4 269 193 192 82
4 193 192 80 185
4 80 79 194 185
4 77 74 75 79
4 85 96 76 74
4 96 243 242 99
4 98 102 103 100
4 104 105 106 230
4 214 218 230 177
4 50 175 51 54
4 49 155 223 48
4 157 156 236 159
4 236 119 159 156
4 235 119 164 136
4 236 119 164 235
4 133 235 120 123
4 120 235 133 119
4 135 123 235 133
4 124 173 123 126
4 173 172 126 154
4 166 171 154 172
4 172 171 154 173
4 171 16 154 173
4 171 166 154 153
4 16 171 154 153
4 124 173 16 133
4 124 173 133 123
4 25 133 119 121
4 19 16 133 21
4 163 19 133 21
4 134 19 133 136
4 133 119 136 163
4 133 19 163 136
4 132 20 18 19
4 20 132 234 19
4 20 19 163 21
4 22 20 21 18
4 16 22 21 18
4 128 129 127 21
4 160 129 21 127
4 160 21 25 127
4 25 20 21 23
4 25 27 23 160
4 25 27 30 26
4 23 22 21 160
4 16 129 21 22
4 128 130 165 270
4 128 130 270 129
4 128 130 16 165
4 16 165 153 154
4 17 16 14 153
4 131 17 18 14
4 17 141 153 15
4 12 10 15 153
4 15 17 14 153
4 153 16 14 130
4 16 129 22 130
4 128 130 129 16
4 16 128 165 154
4 151 166 153 165
4 260 145 7 151
4 9 6 252 7
4 7 262 252 149
4 260 259 7 251
4 7 259 147 251
4 264 259 271 149
4 259 7 147 149
4 146 148 147 149
4 271 259 147 149
4 148 271 147 149
4 146 142 143 141
4 144 141 140 139
4 141 134 140 139
4 143 141 144 139
4 142 145 141 146
4 145 142 141 144
4 148 142 143 146
4 145 7 10 146
4 145 150 151 153
4 151 272 150 7
4 151 272 273 150
4 151 272 4 273
4 4 272 2 273
4 151 272 7 4
4 4 260 7 151
4 166 145 151 153
4 166 145 169 151
4 171 166 153 145
4 133 16 140 173
4 124 16 21 133
4 25 21 160 23
4 21 129 160 22
4 121 21 124 127
4 121 120 133 119
4 123 121 125 120
4 123 121 120 133
4 25 133 121 21
4 25 20 163 21
4 118 24 28 161
4 26 28 161 32
4 40 115 28 31
4 115 52 113 112
4 246 112 109 52
4 246 52 109 54
4 56 54 109 55
4 56 107 55 248
4 58 60 59 57
4 63 61 65 104
4 68 72 70 67
4 182 75 73 74
4 77 79 75 80
4 196 79 185 194
4 79 78 185 80
4 77 78 82 84
4 83 77 82 84
4 77 74 84 76
4 96 74 93 72
4 103 66 93 68
4 65 66 69 63
4 63 61 104 213
4 61 60 104 213
4 59 227 226 228
4 274 110 227 225
4 246 36 247 37
4 246 36 35 52
4 52 115 40 31
4 28 31 38 40
4 44 42 158 45
4 120 44 122 158
4 135 133 140 173
4 171 16 173 140
4 171 144 153 140
4 141 144 140 153
4 10 141 15 153
4 10 12 15 13
4 10 8 12 13
4 8 10 12 11
4 8 9 11 255
4 9 253 149 252
4 257 262 149 252
4 262 259 149 7
4 258 7 4 260
4 259 258 7 262
4 262 0 7 252
4 0 6 7 252
4 254 6 252 255
4 0 3 6 252
4 6 3 254 252
4 272 6 11 7
4 4 6 272 7
4 4 6 2 272
4 9 6 11 255
4 9 253 252 255
4 262 264 257 149
4 257 264 275 271
4 259 264 262 149
4 257 264 271 149
4 9 146 7 149
4 10 7 11 9
4 7 12 10 11
4 145 150 153 12
4 12 145 10 153
4 145 146 10 141
4 145 142 147 146
4 171 145 153 144
4 171 142 145 144
4 142 171 145 167
4 142 145 147 167
4 167 145 147 251
4 145 260 7 251
4 145 150 12 7
4 12 145 7 10
4 12 152 153 14
4 152 153 14 130
4 152 151 153 165
4 165 152 276 270
4 152 151 165 276
4 165 152 270 130
4 152 151 276 150
4 276 150 151 273
4 272 7 11 150
4 7 12 11 150
4 153 150 152 12
4 165 16 153 130
4 165 152 130 153
4 15 12 153 14
4 13 131 14 15
4 17 131 15 14
4 17 132 18 19
4 25 24 163 20
4 25 24 118 163
4 119 156 164 118
4 118 117 45 156
4 155 45 117 156
4 113 40 117 155
4 50 49 224 48
4 49 50 224 51
4 50 237 224 51
4 237 50 175 51
4 52 54 220 174
4 52 247 220 54
4 39 247 220 52
4 39 247 52 36
4 115 52 35 31
4 40 115 52 113
4 40 115 113 117
4 115 112 113 114
4 53 52 51 54
4 54 53 109 55
4 52 53 109 54
4 110 246 109 54
4 247 110 54 246
4 247 110 274 225
4 246 274 37 247
4 247 110 246 274
4 110 225 54 57
4 57 217 226 219
4 57 217 218 230
4 219 218 54 57
4 218 54 174 220
4 46 39 52 40
4 39 31 52 40
4 38 42 45 40
4 28 38 44 45
4 121 25 44 119
4 123 135 173 133
4 134 153 140 16
4 134 16 140 133
4 137 135 134 140
4 134 153 141 140
4 134 153 16 17
4 16 17 19 134
4 134 153 17 141
4 153 145 10 141
4 6 9 11 7
4 258 7 0 4
4 1 0 2 5

CELL_TYPES 734
10
10
10
10
10
10
10
10
10
10
10
10
10
10
10
10
10
10
10
10
10
10
10
10
10
10
10
10
10
10
10
10
10
10
10
10
10
10
10
10
10
10
10
10
10
10
10
10
10
10
10
10
10
10
10
10
10
10
10
10
10
10
10
10
10
10
10
10
10
10
10
10
10
10
10
10
10
10
10
10
10
10
10
10
10
10
10
10
10
10
10
10
10
10
10
10
10
10
10
10
10
10
10
10
10
10
10
10
10
10
10
10
10
10
10
10
10
10
10
10
10
10
10
10
10
10
10
10
10
10
10
10
10
10
10
10
10
10
10
10
10
10
10
10
10
10
10
10
10
10
10
10
10
10
10
10
10
10
10
10
10
10
10
10
10
10
10
10
10
10
10
10
10
10
10
10
10
10
10
10
10
10
10
10
10
10
10
10
10
10
10
10
10
10
10
10
10
10
10
10
10
10
10
10
10
10
10
10
10
10
10
10
10
10
10
10
10
10
10
10
10
10
10
10
10
10
10
10
10
10
10
10
10
10
10
10
10
10
10
10
10
10
10
10
10
10
10
10
10
10
10
10
10
10
10
10
10
10
10
10
10
10
10
10
10
10
10
10
10
10
10
10
10
10
10
10
10
10
10
10
10
10
10
10
10
10
10
10
10
10
10
10
10
10
10
10
10
10
10
10
10
10
10
10
10
10
10
10
10
10
10
10
10
10
10
10
10
10
10
10
10
10
10
10
10
10
10
10
10
10
10
10
10
10
10
10
10
10
10
10
10
10
10
10
10
10
10
10
10
10
10
10
10
10
10
10
10
10
10
10
10
10
10
10
10
10
10
10
10
10
10
10
10
10
10
10
10
10
10
10
10
10
10
10
10
10
10
10
10
10
10
10
10
10
10
10
10
10
10
10
10
10
10
10
10
10
10
10
10
10
10
10
10
10
10
10
10
10
10
10
10
10
10
10
10
10
10
10
10
10
10
10
10
10
10
10
10
10
10
10
10
10
10
10
10
10
10
10
10
10
10
10
10
10
10
10
10
10
10
10
10
10
10
10
10
10
10
10
10
10
10
10
10
10
10
10
10
10
10
10
10
10
10
10
10
10
10
10
10
10
10
10
10
10
10
10
10
10
10
10
10
10
10
10
10
10
10
10
10
10
10
10
10
10
10
10
10
10
10
10
10
10
10
10
10
10
10
10
10
10
10
10
10
10
10
10
10
10
10
10
10
10
10
10
10
10
10
10
10
10
10
10
10
10
10
10
10
10
10
10
10
10
10
10
10
10
10
10
10
10
10
10
10
10
10
10
10
10
10
10
10
10
10
10
10
10
10
10
10
10
10
10
10
10
10
10
10
10
10
10
10
10
10
10
10
10
10
10
10
10
10
10
10
10
10
10
10
10
10
10
10
10
10
10
10
10
10
10
10
10
10
10
10
10
10
10
10
10
10
10
10
10
10
10
10
10
10
10
10
10
10
10
10
10
10
10
10
10
10
10
10
10
10
10
10
10
10
10
10
10
10
10
10
10
10
10
10
10
10
10
10
10
10
10
10
10
10
10
10
10
10
10
10
10
10
10
10
10
10
10
10
10
10
10
10
10
10
10
10
10
10
10
10
10
10
10
10
10
10
10
10
10
10
10
10
10
10
10
10
10
10
10
10
10

CELL_DATA 734
SCALARS potentialEnergy FLOAT 1
LOOKUP_TABLE default
50.483719
44.049107
80.013977
295.294586
72.265381
63.530678
33.975805
60.975552
40.931055
63.390476
54.574131
64.249191
42.577660
130.204514
142.078629
156.647369
76.888939
190.350555
319.482300
214.144516
385.394928
189.810623
149.624512
252.365448
154.386093
47.673416
46.577396
169.755768
254.934235
73.836594
48.860252
117.847061
93.719185
28.151569
31.181150
27.900553
38.999092
46.897335
53.999924
38.457394
42.568718
22.526367
43.318096
66.304134
57.046906
42.523354
81.038521
87.137337
31.702759
58.645691
138.058655
163.487549
114.644386
56.844761
53.074383
67.350685
65.629669
62.739147
70.449913
357.201141
43.487492
117.611427
59.642963
152.007446
36.094992
80.945930
133.553925
257.479065
161.810471
122.814201
105.404762
73.413704
47.543476
54.079407
51.343666
119.746758
88.422562
24.237512
34.691042
98.020836
31.873163
19.712939
31.596800
59.167023
100.752693
107.578415
98.839569
131.115280
48.133595
68.269012
70.847107
163.316940
62.577980
175.762894
179.568192
160.586945
86.289917
188.798996
315.188995
214.278275
95.060303
50.704853
64.508434
99.831688
53.947708
85.645790
54.279930
49.446533
94.973953
70.635181
101.394028
116.854744
216.345398
296.855927
510.259369
190.205673
128.005959
60.512402
36.678011
43.042698
67.085651
58.018784
63.628052
58.595959
92.729080
96.141975
12.283379
88.674454
42.548191
228.698807
287.220825
63.410435
140.127319
120.881943
52.815052
88.923210
66.533100
97.854095
34.782791
78.477150
21.125469
18.338184
153.544159
40.833427
76.524475
79.914497
95.784897
44.544804
50.675079
37.753317
187.757706
86.218773
191.644302
67.828304
60.672787
33.598799
112.840004
143.111969
64.545563
88.843628
46.735504
49.909607
41.632906
61.401539
86.240341
75.079468
102.302895
112.341507
102.233803
37.425081
50.485584
57.141529
30.792923
160.319931
70.192467
93.830681
78.034576
46.557728
71.489697
26.790464
122.972588
146.523422
101.076721
45.461231
48.573696
55.661640
266.835144
332.180573
140.223145
130.299355
326.565308
99.532204
144.393433
118.874519
95.222176
40.533901
48.566593
43.379314
204.510162
62.122250
49.054131
133.949623
192.100632
127.833824
43.812305
37.858587
101.035934
149.379456
64.306602
170.890320
130.190781
38.793890
99.390472
89.924965
49.267822
104.190704
60.835503
64.795555
35.169970
234.364594
256.472061
137.841125
86.628677
111.645439
42.641941
206.858673
85.421165
169.377380
105.353943
180.713013
152.874817
135.872711
34.179888
31.238352
107.400299
33.563725
79.126740
152.611115
47.924385
32.927191
232.182556
348.273163
150.473221
111.823357
64.529919
107.214485
93.225403
113.097740
97.810242
45.097900
121.556572
97.965714
158.763611
123.122719
153.343384
160.285477
122.869141
86.392044
140.347290
150.327423
77.524582
27.782820
57.507526
95.592575
45.985428
67.438660
27.858469
31.371801
118.319862
51.668915
96.432045
62.624577
41.544661
124.339951
123.349075
80.664627
204.905319
69.109985
19.404904
43.939945
34.778894
33.770512
26.950075
24.321167
66.087578
76.899216
182.311508
46.524696
51.611992
58.388813
126.865089
25.809362
108.520218
77.501831
141.887939
108.993019
186.868973
174.512314
145.381485
36.606087
98.408951
73.987534
70.641838
157.199387
171.328049
107.499748
104.682487
122.961143
169.239502
132.581467
253.160233
55.285767
68.611774
158.882965
81.239685
133.536217
94.390694
151.861954
73.149376
120.509163
75.515511
152.772995
83.615730
211.428772
18.508545
71.784336
79.254669
60.752827
25.743766
64.916466
37.667803
55.683491
98.098900
114.900719
136.664886
130.977608
49.441807
32.792170
127.967201
139.986404
48.619583
125.786209
60.810608
59.949375
34.453535
44.519814
95.934288
32.815323
32.551012
15.207633
15.433823
23.929422
84.940941
131.442169
36.865965
99.517380
79.980003
60.053532
104.756157
77.256714
76.288857
32.220667
61.304157
55.075706
155.658615
47.734756
100.840767
222.224274
91.263313
249.597504
126.640251
71.064095
23.981282
103.330803
64.174179
121.600662
18.872052
17.469622
31.587997
31.973368
37.577658
78.444298
82.497772
50.529140
156.508408
24.945090
124.919090
66.169838
106.678452
63.693295
76.263084
258.838303
57.863216
99.627518
106.596451
73.409943
75.146378
45.663536
26.080021
106.198723
24.436233
189.259003
163.656219
115.812866
25.913098
66.352329
75.845459
15.933447
72.689960
77.239365
37.666971
113.065834
79.195656
19.859317
58.863621
69.062325
48.156273
79.113503
268.210114
265.576492
48.058620
57.979870
123.295502
46.600254
89.033615
64.121567
130.606216
71.294029
106.760704
96.507034
73.855186
74.854172
23.843869
77.410797
67.532482
35.616953
100.970665
169.705048
80.322693
68.968346
61.403172
34.411661
59.999142
47.883732
93.757812
54.612186
150.454193
191.508835
111.851662
161.563278
105.308861
81.404694
150.331009
162.121765
122.983299
69.930939
123.087906
21.580658
72.966236
67.595974
59.544258
26.372684
87.050446
150.253357
69.673817
70.445839
102.454361
36.024214
43.493683
167.578568
102.810204
99.740639
136.756752
60.507725
78.007164
51.377865
111.493523
219.342300
203.743607
106.030815
192.628082
110.084587
69.734756
51.365997
165.807083
92.007172
71.186863
50.473789
70.262733
62.496025
29.638170
32.905115
156.223511
54.044239
74.452026
84.119209
65.478249
58.122196
86.209251
240.028976
27.843967
42.596767
18.677603
43.259739
48.987164
122.457207
146.141510
86.810501
89.586655
80.292992
35.639132
70.765396
47.456860
45.227848
25.179851
32.189676
22.896639
15.379175
16.218621
52.329556
68.535694
57.657692
41.356173
49.776585
108.108414
33.011841
95.385574
53.697414
74.179993
78.238289
48.274097
13.151120
53.506367
28.877754
36.156521
131.428886
86.508545
41.263498
109.645111
69.903004
21.627034
65.789417
34.937670
40.236620
83.961166
68.682858
66.743259
31.507030
38.974985
72.474079
29.912012
26.688845
39.482944
55.784477
56.192535
68.586143
117.179916
211.430634
59.127808
25.297256
132.909576
63.534195
65.637096
225.832382
69.960377
68.605042
125.849045
48.611763
54.629696
74.990341
38.132940
127.361137
59.705040
107.209938
24.933440
43.404766
99.768829
79.524017
147.623993
423.802094
68.100666
41.336546
64.957928
116.084457
91.096725
50.695591
127.792282
69.422737
54.142685
87.485077
104.262283
48.438831
89.708176
106.557030
73.666809
165.026535
107.493233
283.712952
266.921936
120.344292
124.631248
182.929413
81.126801
63.723137
122.671341
62.324116
51.762936
27.506475
52.862244
104.318871
122.383598
30.613642
57.295841
101.833519
43.819050
59.679153
124.074326
115.442207
91.678780
37.957870
69.407963
255.745316
256.283829
193.061218
405.876648
34.963247
40.158724
105.942535
78.179428
93.416191
50.325573
19.090264
112.165039
36.043665
99.370239
112.852249
39.080914
57.167450
60.528225
42.246616
21.558527
70.625767
32.713024
302.903015
292.331116
137.360130
104.959435
262.584183
173.493835
105.343185
39.656734
100.345428
33.716196
22.905780
133.270866
117.571327
58.667210
25.043341
65.265736
137.865829
315.042511
109.555008
65.027760
181.059891
113.442665
61.760792
60.420837
29.710896
35.656328
54.487377
60.267845
115.847916
51.412514
37.836359
55.089306
45.601250
169.545776
66.193043
40.043653
56.071186
89.965546
107.149536
69.687737
39.689091
63.616642
40.818737
206.203537
58.459629
43.963791
114.528625
155.384598
158.183609
60.279922
72.369152
56.607872
33.303848
127.528793
88.314186
83.170967
175.728226
286.716125
218.302048
225.224274
122.223541
92.155136
161.978363
124.355309
89.126511
75.961418
38.590729
124.734161
35.234646
114.158203
41.346737
79.954575
45.746296
94.842567
284.867767
236.980225
190.116577
370.767914
85.946617
30.858286
107.860115
142.769196
35.691866
91.679230
127.233208
63.714508
76.830383
50.222145
265.634735
88.851440
41.804935

