# vtk DataFile Version 3.1
Tetrahedral Mesh Visualization
ASCII
DATASET UNSTRUCTURED_GRID

POINTS 277 FLOAT
0.000000 1.378113 1.754166
0.000000 0.000000 0.000000
1.998251 0.012599 -0.006634
0.000000 1.666667 0.000000
2.418904 0.017507 1.726349
0.000000 0.000000 1.666667
1.692134 2.478723 -0.004371
3.000024 2.471899 2.318874
4.000849 5.017114 -0.011730
3.076113 5.013264 1.633299
5.214533 5.016519 1.594284
3.491864 3.195665 -0.007662
5.411460 3.322610 -0.012458
6.011919 5.016145 -0.008365
7.381627 3.349055 -0.009965
6.982658 5.011006 1.309661
9.258867 2.180204 2.021195
8.713903 5.002510 1.603181
9.374485 3.332358 -0.002537
10.684740 4.987157 1.668707
11.373295 3.311551 0.020494
11.119590 1.847441 1.570912
10.690475 1.653789 0.011443
12.701774 1.647041 0.037088
13.379274 3.309113 0.051955
12.985897 1.853056 1.533932
14.701350 1.630855 0.065504
14.017129 -0.029959 0.054668
15.479966 2.101269 1.770350
15.330616 -0.040021 1.734797
13.331748 -0.023953 1.704585
17.292229 -0.066486 1.730360
16.703859 1.603545 0.111227
18.030836 -0.065825 0.135579
16.021652 -0.046818 0.087538
18.710770 1.599147 0.148371
19.015661 -0.065704 1.473990
20.037874 -0.058488 0.170365
16.708656 -0.054431 3.409254
18.982504 -0.071572 3.257393
17.697847 2.622137 3.073541
17.947378 -0.070135 5.128986
16.637512 1.608660 5.111280
15.947348 -0.047594 5.095142
14.660081 -0.033063 3.391908
15.767850 2.844413 3.444886
18.683342 1.619539 5.145216
17.280758 3.275026 5.125386
19.240091 3.314107 5.154402
19.314854 4.936739 3.492475
20.945768 3.604547 5.181320
21.306419 4.937681 3.522300
19.627445 2.425445 2.517500
20.673452 4.936182 1.844424
21.908821 2.445336 2.678504
22.675169 4.933457 1.881018
23.341726 3.327390 0.225244
23.966999 2.379234 2.537019
25.053024 3.623164 0.257897
25.049427 1.834317 0.258427
25.990578 2.447937 2.008403
27.334330 1.661429 0.309676
26.771954 3.343383 0.302704
29.288219 -0.045403 2.010652
28.076490 -0.036643 0.342667
29.388901 1.628895 0.404071
31.014975 -0.052317 1.775146
32.076035 -0.051357 0.496515
31.393410 1.615309 0.479239
30.070610 -0.044831 0.424396
33.361782 1.590296 0.556123
34.074890 -0.072864 0.589490
32.700188 -0.064673 2.135440
34.608089 -0.079233 2.302301
34.977650 2.322780 3.175910
36.510422 -0.075107 2.519813
35.093430 -0.079838 4.030505
36.781334 -0.068604 4.251329
38.199833 2.442565 5.752783
37.691109 2.093713 2.921681
38.285084 -0.071416 3.274639
38.052437 -0.092498 0.736094
37.909138 -0.071359 5.737604
35.897018 -0.076091 5.675723
36.458397 1.669581 5.697000
34.830791 1.259342 5.633795
34.746929 3.058480 5.630675
36.655506 3.398942 5.703332
33.897324 4.930093 5.603934
32.598381 3.242687 5.532671
33.236858 4.939312 3.915547
31.903122 4.946614 5.505041
35.116592 4.918417 4.046095
32.201103 2.538040 2.941192
34.620132 4.930257 2.326942
32.723808 3.272275 0.539720
33.162609 -0.070961 3.862741
30.951365 -0.052277 3.562830
31.222223 1.602297 5.471920
33.148258 1.539155 5.553559
30.575052 3.279459 5.445948
28.569637 3.288876 5.353575
29.238939 1.620575 5.384711
30.012466 2.455005 2.896631
27.948353 2.452104 2.809984
26.573460 3.288648 5.289987
27.242268 1.621260 5.309730
24.670914 4.934297 1.919347
22.051327 4.936755 0.201095
21.383860 3.284677 0.193873
22.776087 1.637460 0.217262
20.042765 4.934310 0.168792
19.381330 3.266515 0.158608
18.677189 4.935345 1.812400
18.044744 4.936889 0.137397
17.378788 3.268461 0.121648
16.055155 4.948674 0.097475
16.685061 4.947899 1.779747
14.689809 4.969956 1.743740
13.694939 2.938694 3.324317
12.964697 1.303348 5.039923
12.649609 -0.016933 3.361984
13.955183 -0.024189 5.059189
11.252434 1.592891 5.019772
10.639732 -0.013072 3.338727
11.966630 -0.024117 5.019897
9.963686 -0.018619 4.995862
11.323536 -0.014927 1.680085
9.299405 0.003611 1.659385
10.000487 -0.005327 -0.004206
8.693280 1.673349 -0.005994
8.037447 5.010398 -0.006598
10.047091 4.989329 0.005090
11.220771 2.624399 3.302467
9.266451 4.999423 3.295410
10.727527 3.294559 5.013645
11.318726 4.982003 3.347018
9.998969 4.986491 5.009844
11.987915 4.981050 5.033284
8.005000 5.005370 4.984153
8.735823 3.388192 4.986992
6.970321 5.018268 3.098129
5.357205 3.387113 4.991581
5.999931 5.017229 4.986906
7.029666 3.696450 4.989721
5.143059 2.391942 3.131048
4.623508 5.016366 3.275892
3.486595 3.211067 4.993428
4.002182 5.021000 4.984948
2.369504 5.013506 3.269641
4.838711 1.626246 -0.005589
4.895464 0.018474 1.867331
6.727202 1.681489 -0.009869
7.015471 2.585279 2.182133
8.633842 0.005429 3.321834
17.325972 4.945401 3.459590
15.332598 4.967852 3.423738
15.977282 4.951634 5.109662
14.676492 1.574995 5.074594
15.237978 3.266577 5.087552
12.010196 -0.011965 0.023674
15.377917 3.290390 0.084287
14.057685 4.971875 0.068182
12.683896 4.974596 1.706738
13.330215 4.981591 3.383921
7.227776 0.023056 1.677265
6.653855 0.015509 3.366035
4.904099 1.666528 4.996280
5.986096 0.013246 4.989583
4.905214 0.015913 3.654620
3.991121 0.014616 4.992015
7.037537 1.902929 4.986245
7.974472 0.008600 4.983580
9.259568 1.684521 4.995850
20.945070 1.810470 5.185730
22.649225 3.316558 5.217659
23.929323 4.938296 5.245644
24.593683 3.277872 5.255457
23.299662 4.933808 3.563263
27.284988 4.959303 3.643842
26.669565 4.948454 1.962757
25.290190 4.946182 3.600632
35.237278 1.533124 0.640838
36.913158 1.380816 0.710075
39.950630 3.162299 4.420348
39.982155 1.547137 3.376542
38.292606 4.922395 3.277140
40.006691 3.162768 2.689711
39.956879 4.916293 4.127064
37.900139 4.915105 5.743700
39.902397 4.923149 5.788699
39.913578 3.254200 5.793450
39.908073 1.585225 5.777328
39.950771 -0.085407 4.105815
40.001396 -0.090131 2.443064
40.048267 -0.096432 0.771006
40.055492 1.566912 0.777720
40.077389 3.240088 0.797296
38.380508 2.382807 0.743952
38.073929 4.911428 0.732435
40.016396 4.909140 2.457342
36.787033 4.919801 4.253409
36.524029 4.923698 2.518669
36.585178 3.102685 0.698531
36.086422 4.926058 0.675168
34.676880 3.236702 0.626365
34.097351 4.941478 0.610409
30.740688 3.290309 0.459393
30.090128 4.955572 0.433870
32.095436 4.946548 0.519669
30.680119 4.953870 2.125504
28.742147 3.302430 0.376051
26.686880 -0.053438 3.675056
27.274942 -0.035952 1.995400
25.246494 1.607361 5.260312
23.943327 -0.073628 5.236652
25.927479 -0.062755 5.275616
24.963339 -0.065441 3.924502
23.204729 1.620751 5.228165
23.245317 -0.069979 3.605681
21.240602 -0.069190 3.495691
21.944485 -0.082622 5.197834
19.948126 -0.082998 5.164211
17.966780 4.930650 5.144353
19.954456 4.929579 5.169281
22.742811 -0.066312 1.900940
25.002697 -0.065804 2.132517
24.045218 -0.052967 0.231602
26.060476 -0.035759 0.274893
26.054678 4.942848 0.279775
25.666193 2.178170 3.753438
28.680168 4.958058 2.038868
28.072517 4.952382 0.355131
25.914991 4.955930 5.281677
12.049683 4.970602 0.028714
12.978353 3.093987 5.043902
13.982654 4.976267 5.068012
21.941807 4.925652 5.205490
28.687487 -0.041816 3.678744
29.286751 4.955024 3.726654
29.900045 4.948627 5.423536
31.276833 4.945154 3.815543
31.893927 -0.063985 5.494961
33.888794 -0.069185 5.588088
35.897270 4.919214 5.681863
32.665989 4.940471 2.214456
20.728037 1.613109 0.181642
20.737185 -0.064817 1.791284
24.051373 4.938093 0.240835
27.902601 4.955633 5.334725
40.075634 4.894350 0.782719
3.181443 1.485435 4.994909
0.000000 3.103853 1.750106
0.000000 5.000000 1.666667
0.000000 3.333333 0.000000
1.996363 5.011097 -0.007890
0.000000 5.000000 0.000000
0.000000 5.000000 3.333333
0.000000 0.000000 3.333333
1.698623 2.482115 4.997639
3.034715 0.017095 3.385077
1.999400 0.010713 4.997106
0.000000 2.403264 3.370902
0.000000 1.666667 5.000000
0.000000 3.333333 5.000000
0.000000 0.000000 5.000000
27.902222 -0.047100 5.341480
29.900846 -0.046927 5.409641
36.071613 -0.076805 0.684108
39.900352 -0.081780 5.776829
7.993730 0.019333 -0.012466
2.001547 5.009167 4.994045
3.160815 1.472574 -0.010819
3.995652 0.022011 -0.019469
22.042994 -0.060834 0.198046
0.000000 5.000000 5.000000
5.992863 0.027172 -0.011880

CELLS 734 3670
4 0 1 2 3
4 0 4 2 5
4 0 3 2 6
4 4 6 0 2
4 4 6 7 0
4 8 9 10 11
4 12 13 14 15
4 16 17 14 18
4 19 20 18 21
4 20 22 21 23
4 24 25 26 23
4 25 27 26 23
4 26 28 29 30
4 28 29 31 32
4 33 34 32 31
4 31 33 35 32
4 31 33 36 35
4 33 37 36 35
4 38 39 40 31
4 41 42 43 38
4 44 42 45 38
4 44 42 38 43
4 46 38 42 41
4 46 47 40 48
4 49 50 51 52
4 53 54 51 55
4 56 54 55 57
4 56 58 59 57
4 60 59 61 62
4 63 61 64 65
4 66 67 68 69
4 67 70 71 72
4 73 74 75 76
4 74 77 75 76
4 77 78 79 80
4 79 81 75 80
4 77 78 80 82
4 77 83 76 84
4 83 85 76 84
4 85 86 74 84
4 74 86 87 84
4 88 89 86 90
4 91 89 88 90
4 86 88 90 92
4 90 86 92 74
4 86 89 74 90
4 93 94 95 74
4 70 74 72 93
4 70 73 71 72
4 74 96 73 72
4 66 97 93 72
4 96 97 72 93
4 96 98 97 93
4 85 96 74 99
4 96 98 93 99
4 98 89 100 93
4 101 102 100 103
4 104 105 101 106
4 107 58 57 60
4 58 107 57 56
4 53 108 109 55
4 56 110 109 54
4 53 111 109 108
4 112 53 109 52
4 111 112 113 53
4 112 111 113 114
4 115 116 114 117
4 40 28 115 117
4 45 117 118 28
4 119 28 25 44
4 120 44 121 122
4 123 121 124 125
4 125 123 126 124
4 127 128 21 124
4 16 129 128 21
4 16 18 14 130
4 16 17 18 19
4 131 17 132 18
4 16 19 18 21
4 133 16 19 134
4 135 134 133 136
4 135 137 136 138
4 137 134 139 140
4 141 142 143 144
4 145 146 147 7
4 142 148 147 146
4 7 146 147 149
4 10 7 9 146
4 145 150 7 151
4 152 151 150 153
4 16 128 154 124
4 124 21 121 133
4 25 28 30 44
4 28 38 45 40
4 45 47 40 42
4 155 45 156 47
4 157 156 47 155
4 155 45 40 117
4 45 42 158 159
4 44 42 43 158
4 119 45 158 159
4 120 44 158 119
4 25 127 21 121
4 25 27 160 30
4 127 25 160 30
4 25 127 121 30
4 44 25 121 30
4 28 30 44 29
4 119 28 44 45
4 119 28 118 25
4 28 24 26 161
4 26 32 29 28
4 28 31 29 38
4 46 38 41 39
4 46 38 39 40
4 28 117 40 45
4 118 28 117 161
4 162 24 118 161
4 118 119 163 164
4 136 119 164 163
4 25 133 21 163
4 128 16 21 124
4 165 166 153 154
4 166 167 168 169
4 167 168 169 170
4 171 168 172 166
4 124 173 126 154
4 123 121 133 124
4 120 125 122 121
4 122 158 44 43
4 47 46 40 42
4 52 50 174 48
4 175 50 174 54
4 176 175 177 178
4 179 60 180 181
4 64 69 63 65
4 68 72 67 66
4 70 73 182 71
4 74 79 183 75
4 184 78 185 79
4 79 184 186 187
4 186 184 188 187
4 184 189 190 191
4 184 78 79 186
4 78 189 184 191
4 189 184 190 188
4 184 78 191 192
4 184 78 192 185
4 192 78 80 185
4 193 80 194 185
4 195 81 196 194
4 81 79 196 194
4 197 187 196 198
4 187 79 185 196
4 79 184 187 185
4 197 199 187 198
4 199 197 187 200
4 199 200 187 186
4 78 201 79 186
4 189 201 87 78
4 202 201 79 74
4 201 74 92 87
4 201 202 92 74
4 201 202 79 186
4 202 203 74 79
4 202 198 203 79
4 204 202 199 203
4 202 203 205 74
4 202 204 205 203
4 182 203 74 205
4 74 203 183 79
4 79 203 183 198
4 79 81 198 183
4 81 79 198 196
4 187 79 196 198
4 202 198 79 186
4 202 204 94 205
4 94 95 205 206
4 207 208 209 210
4 208 207 211 210
4 104 103 211 65
4 104 60 212 213
4 214 215 216 217
4 218 219 220 221
4 222 174 220 221
4 46 39 222 174
4 52 46 40 48
4 40 49 52 48
4 53 49 52 113
4 40 49 155 113
4 155 45 47 40
4 157 47 223 155
4 49 223 224 48
4 52 50 51 54
4 175 54 57 178
4 218 175 54 57
4 225 219 54 57
4 218 175 57 177
4 57 217 219 218
4 219 225 226 57
4 225 227 226 57
4 59 110 57 227
4 59 60 61 228
4 61 60 213 228
4 64 61 213 228
4 63 61 213 64
4 61 104 211 65
4 180 60 104 62
4 58 229 62 180
4 58 60 180 62
4 60 61 104 62
4 60 226 230 212
4 226 60 213 212
4 60 104 212 230
4 179 60 230 104
4 104 211 231 62
4 180 229 62 232
4 180 232 62 231
4 179 60 104 180
4 233 181 105 179
4 181 105 179 230
4 105 214 106 230
4 105 214 230 177
4 215 214 218 217
4 215 217 218 219
4 218 215 219 221
4 218 175 174 54
4 39 52 220 174
4 39 46 52 174
4 115 52 112 35
4 28 115 117 161
4 162 118 116 161
4 24 162 118 163
4 20 19 234 163
4 25 133 163 119
4 120 119 158 235
4 236 119 235 159
4 235 119 158 159
4 119 235 133 136
4 138 235 236 164
4 45 47 42 159
4 46 38 40 42
4 49 50 52 48
4 237 175 176 178
4 181 233 177 176
4 180 179 231 104
4 207 103 65 211
4 207 103 68 65
4 65 66 103 68
4 103 66 97 93
4 66 103 97 63
4 213 104 63 238
4 238 97 103 63
4 104 102 103 238
4 104 106 212 230
4 214 212 106 230
4 214 212 216 106
4 214 212 217 216
4 214 212 230 217
4 226 217 230 212
4 226 60 230 57
4 181 60 57 230
4 179 105 104 230
4 179 105 101 104
4 104 239 103 101
4 239 101 240 100
4 91 241 240 100
4 241 239 240 100
4 239 241 103 100
4 103 210 93 241
4 103 207 93 210
4 210 103 231 239
4 103 239 104 231
4 103 104 63 65
4 65 66 63 103
4 65 66 68 69
4 68 72 66 93
4 96 98 242 97
4 85 96 99 243
4 85 86 99 74
4 86 89 99 74
4 88 86 244 92
4 74 86 92 87
4 201 244 87 92
4 244 86 87 92
4 90 74 92 94
4 94 95 206 245
4 95 209 206 245
4 245 207 95 209
4 208 232 231 211
4 180 104 231 62
4 181 60 107 57
4 54 175 51 178
4 50 52 174 54
4 246 36 52 247
4 246 36 37 35
4 52 31 36 35
4 31 39 52 36
4 39 46 222 41
4 39 222 174 220
4 174 218 220 221
4 218 219 54 220
4 225 219 220 54
4 56 110 54 57
4 110 56 59 57
4 60 59 226 228
4 60 226 213 228
4 57 217 230 226
4 214 217 230 218
4 218 57 230 177
4 181 105 230 177
4 179 60 181 230
4 58 107 180 60
4 229 107 58 248
4 229 107 180 58
4 60 58 59 62
4 58 107 56 248
4 108 56 109 55
4 108 56 55 248
4 107 56 55 57
4 107 181 57 178
4 57 181 177 178
4 181 176 177 178
4 233 181 177 105
4 249 239 101 240
4 91 89 241 100
4 89 91 241 90
4 210 245 93 241
4 245 241 90 93
4 93 94 90 245
4 74 202 92 94
4 205 204 94 206
4 202 198 199 203
4 202 198 186 199
4 199 197 200 250
4 199 186 187 198
4 200 186 188 187
4 184 189 186 188
4 201 189 87 244
4 189 201 78 186
4 201 78 79 87
4 189 78 184 186
4 186 79 187 198
4 74 201 79 87
4 74 79 84 87
4 79 78 84 87
4 77 78 84 79
4 74 77 84 79
4 74 85 84 76
4 83 243 76 85
4 85 96 243 76
4 73 96 74 76
4 96 93 74 99
4 89 93 99 74
4 93 94 74 90
4 93 94 245 95
4 207 95 68 93
4 95 70 68 93
4 95 70 74 205
4 74 70 182 205
4 94 95 74 205
4 241 89 90 93
4 104 179 231 239
4 181 60 180 107
4 107 57 55 178
4 57 54 55 178
4 53 49 51 52
4 40 49 113 52
4 155 47 223 48
4 45 47 159 156
4 119 156 45 159
4 120 44 119 121
4 16 173 124 154
4 166 167 169 145
4 145 7 147 251
4 9 7 252 149
4 253 254 252 255
4 256 253 255 254
4 6 9 252 255
4 253 257 149 252
4 7 258 259 260
4 260 261 251 170
4 169 260 251 170
4 169 251 167 170
4 166 167 145 171
4 16 22 18 130
4 25 24 20 23
4 24 25 118 28
4 119 156 118 45
4 119 28 45 118
4 119 45 44 158
4 44 38 28 29
4 25 28 26 30
4 25 24 26 28
4 24 20 234 163
4 162 24 234 163
4 163 119 118 25
4 235 135 133 136
4 135 134 140 133
4 145 141 153 144
4 145 260 169 151
4 0 258 4 5
4 259 258 262 263
4 264 259 262 263
4 258 7 262 0
4 260 258 259 261
4 258 261 263 259
4 261 258 263 265
4 261 260 251 259
4 167 251 169 145
4 145 260 251 169
4 166 167 171 168
4 16 171 153 140
4 137 135 136 134
4 138 135 235 136
4 235 138 136 164
4 236 119 156 164
4 157 156 159 47
4 155 47 48 40
4 40 49 48 155
4 46 52 174 48
4 247 225 220 54
4 110 225 57 227
4 60 59 57 226
4 104 61 211 62
4 232 211 62 231
4 103 104 211 231
4 239 210 103 241
4 241 93 103 100
4 68 72 93 70
4 103 207 68 93
4 207 103 211 210
4 210 208 231 211
4 103 210 231 211
4 245 207 210 93
4 245 207 209 210
4 245 207 93 95
4 70 95 74 93
4 70 73 74 182
4 182 203 183 74
4 202 74 205 94
4 93 89 90 74
4 89 241 100 93
4 93 98 103 100
4 101 104 102 103
4 104 101 102 106
4 106 238 104 212
4 266 216 212 106
4 106 238 212 266
4 106 238 102 104
4 267 266 238 102
4 97 102 267 238
4 106 238 266 102
4 97 102 238 103
4 97 102 103 98
4 97 102 98 267
4 97 98 242 267
4 96 98 99 242
4 89 98 99 93
4 239 101 100 103
4 104 179 239 101
4 179 249 239 101
4 105 179 101 249
4 233 105 249 179
4 177 181 57 230
4 175 57 177 178
4 175 237 51 178
4 55 54 51 178
4 112 111 109 53
4 112 53 52 113
4 117 115 113 114
4 116 118 117 161
4 115 116 117 161
4 28 115 161 32
4 29 32 26 34
4 26 30 29 27
4 34 26 29 27
4 29 34 31 32
4 31 115 32 35
4 31 115 28 32
4 246 112 52 35
4 246 247 52 54
4 247 110 225 54
4 59 227 57 226
4 213 104 238 212
4 104 103 63 238
4 97 98 103 93
4 70 73 72 74
4 71 182 268 73
4 182 75 268 73
4 182 75 183 268
4 183 81 268 75
4 182 75 74 183
4 79 81 183 75
4 79 81 80 194
4 78 192 80 82
4 192 193 80 82
4 269 193 192 82
4 193 192 80 185
4 80 79 194 185
4 77 74 75 79
4 85 96 76 74
4 96 243 242 99
4 98 102 103 100
4 104 105 106 230
4 214 218 230 177
4 50 175 51 54
4 49 155 223 48
4 157 156 236 159
4 236 119 159 156
4 235 119 164 136
4 236 119 164 235
4 133 235 120 123
4 120 235 133 119
4 135 123 235 133
4 124 173 123 126
4 173 172 126 154
4 166 171 154 172
4 172 171 154 173
4 171 16 154 173
4 171 166 154 153
4 16 171 154 153
4 124 173 16 133
4 124 173 133 123
4 25 133 119 121
4 19 16 133 21
4 163 19 133 21
4 134 19 133 136
4 133 119 136 163
4 133 19 163 136
4 132 20 18 19
4 20 132 234 19
4 20 19 163 21
4 22 20 21 18
4 16 22 21 18
4 128 129 127 21
4 160 129 21 127
4 160 21 25 127
4 25 20 21 23
4 25 27 23 160
4 25 27 30 26
4 23 22 21 160
4 16 129 21 22
4 128 130 165 270
4 128 130 270 129
4 128 130 16 165
4 16 165 153 154
4 17 16 14 153
4 131 17 18 14
4 17 141 153 15
4 12 10 15 153
4 15 17 14 153
4 153 16 14 130
4 16 129 22 130
4 128 130 129 16
4 16 128 165 154
4 151 166 153 165
4 260 145 7 151
4 9 6 252 7
4 7 262 252 149
4 260 259 7 251
4 7 259 147 251
4 264 259 271 149
4 259 7 147 149
4 146 148 147 149
4 271 259 147 149
4 148 271 147 149
4 146 142 143 141
4 144 141 140 139
4 141 134 140 139
4 143 141 144 139
4 142 145 141 146
4 145 142 141 144
4 148 142 143 146
4 145 7 10 146
4 145 150 151 153
4 151 272 150 7
4 151 272 273 150
4 151 272 4 273
4 4 272 2 273
4 151 272 7 4
4 4 260 7 151
4 166 145 151 153
4 166 145 169 151
4 171 166 153 145
4 133 16 140 173
4 124 16 21 133
4 25 21 160 23
4 21 129 160 22
4 121 21 124 127
4 121 120 133 119
4 123 121 125 120
4 123 121 120 133
4 25 133 121 21
4 25 20 163 21
4 118 24 28 161
4 26 28 161 32
4 40 115 28 31
4 115 52 113 112
4 246 112 109 52
4 246 52 109 54
4 56 54 109 55
4 56 107 55 248
4 58 60 59 57
4 63 61 65 104
4 68 72 70 67
4 182 75 73 74
4 77 79 75 80
4 196 79 185 194
4 79 78 185 80
4 77 78 82 84
4 83 77 82 84
4 77 74 84 76
4 96 74 93 72
4 103 66 93 68
4 65 66 69 63
4 63 61 104 213
4 61 60 104 213
4 59 227 226 228
4 274 110 227 225
4 246 36 247 37
4 246 36 35 52
4 52 115 40 31
4 28 31 38 40
4 44 42 158 45
4 120 44 122 158
4 135 133 140 173
4 171 16 173 140
4 171 144 153 140
4 141 144 140 153
4 10 141 15 153
4 10 12 15 13
4 10 8 12 13
4 8 10 12 11
4 8 9 11 255
4 9 253 149 252
4 257 262 149 252
4 262 259 149 7
4 258 7 4 260
4 259 258 7 262
4 262 0 7 252
4 0 6 7 252
4 254 6 252 255
4 0 3 6 252
4 6 3 254 252
4 272 6 11 7
4 4 6 272 7
4 4 6 2 272
4 9 6 11 255
4 9 253 252 255
4 262 264 257 149
4 257 264 275 271
4 259 264 262 149
4 257 264 271 149
4 9 146 7 149
4 10 7 11 9
4 7 12 10 11
4 145 150 153 12
4 12 145 10 153
4 145 146 10 141
4 145 142 147 146
4 171 145 153 144
4 171 142 145 144
4 142 171 145 167
4 142 145 147 167
4 167 145 147 251
4 145 260 7 251
4 145 150 12 7
4 12 145 7 10
4 12 152 153 14
4 152 153 14 130
4 152 151 153 165
4 165 152 276 270
4 152 151 165 276
4 165 152 270 130
4 152 151 276 150
4 276 150 151 273
4 272 7 11 150
4 7 12 11 150
4 153 150 152 12
4 165 16 153 130
4 165 152 130 153
4 15 12 153 14
4 13 131 14 15
4 17 131 15 14
4 17 132 18 19
4 25 24 163 20
4 25 24 118 163
4 119 156 164 118
4 118 117 45 156
4 155 45 117 156
4 113 40 117 155
4 50 49 224 48
4 49 50 224 51
4 50 237 224 51
4 237 50 175 51
4 52 54 220 174
4 52 247 220 54
4 39 247 220 52
4 39 247 52 36
4 115 52 35 31
4 40 115 52 113
4 40 115 113 117
4 115 112 113 114
4 53 52 51 54
4 54 53 109 55
4 52 53 109 54
4 110 246 109 54
4 247 110 54 246
4 247 110 274 225
4 246 274 37 247
4 247 110 246 274
4 110 225 54 57
4 57 217 226 219
4 57 217 218 230
4 219 218 54 57
4 218 54 174 220
4 46 39 52 40
4 39 31 52 40
4 38 42 45 40
4 28 38 44 45
4 121 25 44 119
4 123 135 173 133
4 134 153 140 16
4 134 16 140 133
4 137 135 134 140
4 134 153 141 140
4 134 153 16 17
4 16 17 19 134
4 134 153 17 141
4 153 145 10 141
4 6 9 11 7
4 258 7 0 4
4 1 0 2 5

CELL_TYPES 734
10
10
10
10
10
10
10
10
10
10
10
10
10
10
10
10
10
10
10
10
10
10
10
10
10
10
10
10
10
10
10
10
10
10
10
10
10
10
10
10
10
10
10
10
10
10
10
10
10
10
10
10
10
10
10
10
10
10
10
10
10
10
10
10
10
10
10
10
10
10
10
10
10
10
10
10
10
10
10
10
10
10
10
10
10
10
10
10
10
10
10
10
10
10
10
10
10
10
10
10
10
10
10
10
10
10
10
10
10
10
10
10
10
10
10
10
10
10
10
10
10
10
10
10
10
10
10
10
10
10
10
10
10
10
10
10
10
10
10
10
10
10
10
10
10
10
10
10
10
10
10
10
10
10
10
10
10
10
10
10
10
10
10
10
10
10
10
10
10
10
10
10
10
10
10
10
10
10
10
10
10
10
10
10
10
10
10
10
10
10
10
10
10
10
10
10
10
10
10
10
10
10
10
10
10
10
10
10
10
10
10
10
10
10
10
10
10
10
10
10
10
10
10
10
10
10
10
10
10
10
10
10
10
10
10
10
10
10
10
10
10
10
10
10
10
10
10
10
10
10
10
10
10
10
10
10
10
10
10
10
10
10
10
10
10
10
10
10
10
10
10
10
10
10
10
10
10
10
10
10
10
10
10
10
10
10
10
10
10
10
10
10
10
10
10
10
10
10
10
10
10
10
10
10
10
10
10
10
10
10
10
10
10
10
10
10
10
10
10
10
10
10
10
10
10
10
10
10
10
10
10
10
10
10
10
10
10
10
10
10
10
10
10
10
10
10
10
10
10
10
10
10
10
10
10
10
10
10
10
10
10
10
10
10
10
10
10
10
10
10
10
10
10
10
10
10
10
10
10
10
10
10
10
10
10
10
10
10
10
10
10
10
10
10
10
10
10
10
10
10
10
10
10
10
10
10
10
10
10
10
10
10
10
10
10
10
10
10
10
10
10
10
10
10
10
10
10
10
10
10
10
10
10
10
10
10
10
10
10
10
10
10
10
10
10
10
10
10
10
10
10
10
10
10
10
10
10
10
10
10
10
10
10
10
10
10
10
10
10
10
10
10
10
10
10
10
10
10
10
10
10
10
10
10
10
10
10
10
10
10
10
10
10
10
10
10
10
10
10
10
10
10
10
10
10
10
10
10
10
10
10
10
10
10
10
10
10
10
10
10
10
10
10
10
10
10
10
10
10
10
10
10
10
10
10
10
10
10
10
10
10
10
10
10
10
10
10
10
10
10
10
10
10
10
10
10
10
10
10
10
10
10
10
10
10
10
10
10
10
10
10
10
10
10
10
10
10
10
10
10
10
10
10
10
10
10
10
10
10
10
10
10
10
10
10
10
10
10
10
10
10
10
10
10
10
10
10
10
10
10
10
10
10
10
10
10
10
10
10
10
10
10
10
10
10
10
10
10
10
10
10
10
10
10
10
10
10
10
10
10
10
10
10
10
10
10
10
10
10
10
10
10
10
10
10
10
10
10
10
10
10
10
10
10
10
10
10
10
10
10
10
10
10
10
10
10
10
10
10
10
10
10
10
10
10
10
10
10
10
10
10
10
10
10
10
10
10
10
10
10
10
10
10
10
10
10
10
10
10
10
10
10
10
10
10
10
10
10
10
10
10
10
10
10
10
10
10
10
10
10
10
10
10
10

CELL_DATA 734
SCALARS potentialEnergy FLOAT 1
LOOKUP_TABLE default
59.055679
58.301277
57.147579
79.922119
119.875854
27.768486
130.550690
184.551285
105.222549
176.396820
19.191942
16.288372
24.670490
88.013741
121.993538
34.088793
39.972218
60.674488
85.917183
55.007275
54.803097
56.422344
80.702644
81.499733
199.158417
34.148632
144.062637
71.575039
444.740570
164.140182
48.684425
119.320946
111.851257
117.296043
214.314545
177.576065
116.693260
53.879410
20.679214
153.028580
58.933624
155.769470
193.010117
140.896744
273.453308
229.889954
203.149658
105.566795
131.152054
152.517426
99.578606
132.037514
237.003464
283.171478
142.926834
112.266182
171.026825
104.228165
125.423286
281.725708
57.384109
64.158592
66.270172
88.175308
70.596542
18.409938
78.910316
161.057465
100.307358
106.476944
49.704956
28.425041
37.589531
38.754148
87.240440
105.099197
62.961506
115.472824
233.149048
52.583805
74.645218
91.644035
107.834053
26.935955
39.045399
15.722271
41.557926
39.845140
85.546234
115.092461
30.095636
79.179771
61.287483
135.129387
64.825375
94.782066
84.626968
94.498421
67.872086
110.389618
126.286865
95.662445
47.679207
68.836975
47.462719
68.300850
83.381439
66.041416
115.926933
122.423119
35.823162
94.171310
113.234291
68.234272
209.642578
103.122253
232.825241
32.936270
168.037827
66.860073
153.867599
36.207237
51.996632
55.421593
40.987631
186.619278
71.794956
168.232483
134.843292
105.931206
33.909737
100.782776
150.075104
90.457886
207.114334
64.275642
27.935640
130.975060
155.755402
243.982452
206.142868
117.843102
37.180986
112.811440
103.365486
89.270149
165.004593
198.266891
296.431427
151.314697
132.246033
314.971649
260.619339
330.341522
219.675644
81.959755
66.134933
130.020355
275.870087
68.629677
34.768044
39.477701
60.515823
138.426865
73.335876
179.321396
221.289963
84.053421
38.806902
73.542919
142.303009
113.885872
240.159531
329.775513
282.376404
180.902985
72.445755
63.434624
53.159443
210.384537
205.964996
145.893341
135.395508
46.643642
36.996929
100.803970
58.536091
138.144989
111.566383
110.885788
159.123169
118.669510
108.680458
152.003418
160.834671
54.925457
40.412197
156.833450
118.507172
58.303120
73.774712
105.114853
348.163055
338.289154
259.286453
99.886566
225.527557
92.228210
230.015533
356.093384
102.704292
81.653671
198.016830
157.570480
168.437988
537.044861
262.551651
158.806870
119.709686
298.645569
156.857269
127.172348
225.369980
69.687359
44.994457
26.640583
59.384247
48.397976
36.584194
20.344460
133.164635
108.507355
52.288620
50.799484
87.943535
86.987282
75.658340
57.492733
64.673489
76.451958
52.170322
62.281170
115.805115
118.047585
154.834610
314.896362
162.935242
101.156456
111.199608
115.274605
44.391998
150.371613
85.459930
260.294907
94.270576
191.771912
294.678131
62.336819
176.259186
75.634476
182.150803
137.543945
45.433048
43.266685
204.407043
107.677399
50.458694
107.151123
159.922104
136.437340
166.972275
114.955139
152.619324
193.467453
40.505934
66.906780
49.687111
83.950172
55.789616
151.177261
172.847687
88.193634
132.425232
29.961706
56.549091
110.959282
42.811371
54.227345
29.550451
228.755981
306.933868
193.994720
219.159790
87.615234
184.624634
51.741302
55.257267
74.118507
49.287102
72.790600
58.423340
29.121622
36.259928
58.464642
258.936523
369.232117
237.707047
122.812675
110.977303
110.046013
609.695312
130.331825
95.207825
37.568142
278.982880
181.252670
82.323463
54.148842
79.818008
52.059124
351.839478
144.676987
148.201965
254.214828
91.057991
100.143211
89.934746
105.542534
64.558201
82.518585
66.631260
87.701729
95.330009
136.727303
241.659515
126.787430
68.230137
248.739548
67.410809
196.012405
201.382034
176.285217
214.187164
80.453354
69.747154
136.031990
128.472527
96.172119
30.193283
107.697624
61.441753
213.269241
285.294006
211.995575
124.312714
138.485443
56.699829
109.671074
112.861366
302.894226
131.531311
155.223877
83.159996
129.092812
156.128220
240.529831
266.505157
40.835268
110.839813
102.341957
104.112198
60.906857
58.961826
127.308044
39.467833
51.058239
143.687149
122.554855
41.212664
44.977924
110.824242
71.797340
40.236805
36.593159
108.049965
89.406860
59.666275
55.366135
96.229858
122.364548
114.190079
126.467705
28.074104
61.205658
152.322174
142.352966
110.304054
129.281975
94.116051
87.529961
50.263859
56.205166
41.563560
31.735735
52.429001
60.403858
72.943954
28.444479
31.310066
119.601097
49.155750
52.321526
104.588394
115.390579
93.806702
47.424793
150.442047
78.074478
101.051041
178.034485
43.465282
55.674824
78.722160
107.653305
289.358734
236.735336
205.998886
162.361389
179.590332
129.494469
150.313354
236.082779
113.848885
158.204590
132.150215
47.761650
63.499470
187.058670
137.363930
74.891602
77.107277
287.903900
121.443367
185.505707
195.978455
91.680283
269.497284
498.636230
158.841446
307.445496
56.730030
56.357891
99.595695
191.840332
184.409302
45.688507
60.998524
53.606739
109.099510
235.835678
165.043716
85.455894
30.385542
97.611389
208.749619
321.965576
82.651863
115.713760
43.979027
101.917580
126.151611
61.583454
136.787491
73.909389
105.877274
182.092529
188.844391
103.014206
26.700632
75.789993
75.591141
57.072948
29.847427
69.399719
316.199615
138.214951
361.594849
180.057083
101.264290
103.752289
36.805326
235.206818
62.620834
276.505280
257.085434
238.320526
163.339066
126.118118
177.888412
134.377625
122.855927
228.927155
140.641815
152.530609
46.623211
88.490845
144.089767
69.575848
92.352478
53.348839
26.606190
83.920464
77.126663
38.020729
145.340652
47.688995
99.504158
73.168522
50.355537
53.463428
95.167755
203.702866
62.832943
124.754135
130.758034
75.144157
79.686081
48.108414
69.490780
39.187120
39.617025
45.426418
59.237637
40.535439
200.200729
77.038818
204.758255
59.349266
100.300667
98.609428
138.670151
272.317657
65.537659
55.911213
59.736782
90.165489
52.964745
119.922836
108.957733
127.591110
128.610863
187.177628
34.067556
140.052612
100.929962
56.198872
114.056480
56.796837
118.577118
89.876350
46.543655
107.334488
58.964153
54.686760
30.657528
68.804073
79.311432
80.822495
28.961157
110.017838
72.370052
128.497627
42.709213
59.303791
56.403717
103.814590
48.554577
74.139503
97.694313
60.942215
143.291458
96.056061
107.612251
104.498001
115.645699
128.402962
46.897984
168.138794
98.934837
38.801285
73.056068
143.311295
82.710983
84.243042
56.450855
79.429939
124.777840
153.096634
43.931461
97.083900
56.037739
86.201698
56.359566
174.059250
392.723907
75.255974
103.832817
138.153824
172.198761
310.133820
127.887550
142.350616
142.015549
177.770844
88.676559
18.581886
238.882706
272.762115
380.638306
33.927809
51.598541
94.351349
42.080772
104.984146
157.816467
85.382462
49.284771
92.127823
67.883648
281.051819
102.675171
68.767002
86.862465
35.770367
26.076300
45.279102
56.291943
74.458954
133.818329
81.599251
40.818430
85.204384
149.011688
38.412573
37.387062
103.797668
89.927177
44.145531
51.155823
37.671972
57.208557
42.700989
62.862507
50.782688
32.670317
45.326813
43.785652
96.387001
35.383923
33.409519
46.952354
164.662933
117.401329
109.650902
49.808884
58.136757
102.328140
104.385826
42.749187
188.459549
42.265614
264.157944
59.434978
165.328354
42.198360
107.016846
67.995422
34.189543
54.035442
124.190681
77.939140
43.910305
188.320770
354.583435
144.378662
53.697620
159.113663
52.653854
41.963415
98.775894
118.293106
68.530300
51.773849
70.043972
71.327221
61.193085
74.669647
34.732586
29.144127
65.697475
76.382309
26.174944
105.327354
25.929544
25.198668
78.050774
78.711861
53.801647
29.499939
20.558581
57.363075
26.971470
55.513901
91.726357
196.364853
32.803385
213.199387
39.572834
55.784504
98.490097
141.564209
110.037910
63.095654
97.637741
108.358284
92.569656
148.557541
75.249016
85.315735
98.342606
42.525410
103.333717
92.692619
48.539265

