# vtk DataFile Version 3.1
Tetrahedral Mesh Visualization
ASCII
DATASET UNSTRUCTURED_GRID

POINTS 277 FLOAT
0.000000 1.378113 1.754166
0.000000 0.000000 0.000000
1.997664 -0.000023 -0.010108
0.000000 1.666667 0.000000
2.417107 0.004540 1.724130
0.000000 0.000000 1.666667
1.694684 2.467187 -0.004061
2.998487 2.459947 2.318832
4.016477 5.002829 0.016303
3.083107 5.003099 1.649851
5.224057 5.000335 1.634742
3.499327 3.185167 0.005042
5.415863 3.302090 0.013707
6.015128 4.999108 0.030892
7.366940 3.316855 0.038574
6.974708 4.992698 1.369751
9.253325 2.151986 2.063520
8.692980 4.984947 1.661402
9.343171 3.319018 0.038631
10.651003 4.980292 1.701052
11.332569 3.326077 0.029431
11.113628 1.846801 1.584744
10.676871 1.655988 0.026088
12.667460 1.672759 0.011048
13.324723 3.346735 0.009252
12.973969 1.875080 1.505417
14.665195 1.703931 -0.012732
14.004937 0.026787 -0.018064
15.465191 2.179938 1.675470
15.342315 0.036327 1.624932
13.345485 0.005544 1.655411
17.300276 0.060147 1.562109
16.664873 1.731943 -0.026175
18.000471 0.087846 -0.058149
16.002163 0.055214 -0.038038
18.679710 1.748343 -0.044728
19.014437 0.069820 1.256716
20.012068 0.077697 -0.063962
16.747309 0.031645 3.258160
19.009123 0.050337 3.045430
17.703163 2.735644 2.915118
18.012165 0.019281 4.942099
16.686892 1.686191 4.969887
16.027811 0.011039 4.971061
14.702511 -0.001883 3.307862
15.772240 2.910795 3.341587
18.723764 1.727974 4.948867
17.300623 3.368828 4.978612
19.266731 3.423928 4.971621
19.309668 5.050587 3.315686
20.969376 3.719337 4.988965
21.311640 5.053973 3.338146
19.629107 2.557938 2.309569
20.664305 5.070532 1.663375
21.910492 2.575422 2.452241
22.662689 5.067244 1.673487
23.309505 3.471014 -0.004625
23.971247 2.523355 2.289093
25.024927 3.775644 0.021738
25.027445 1.988006 -0.000766
25.992096 2.574466 1.751840
27.296595 1.793887 0.031603
26.743374 3.487589 0.048902
29.280001 0.057299 1.656419
28.035189 0.096024 0.013132
29.341969 1.763521 0.077281
31.000320 0.063984 1.394961
32.028152 0.080613 0.089280
31.343323 1.748056 0.107401
30.032267 0.091646 0.059355
33.308620 1.727404 0.132955
34.032795 0.078128 0.109721
32.691212 0.051522 1.709689
34.605354 0.051799 1.801063
34.987316 2.442533 2.702811
36.520016 0.049034 1.961964
35.124271 0.025384 3.504761
36.819073 0.013738 3.686162
38.243534 2.504182 5.214303
37.693924 2.207979 2.384383
38.313019 0.040855 2.706860
38.055515 0.085973 0.178527
37.958054 -0.017288 5.162802
35.954762 -0.007139 5.128381
36.514172 1.734626 5.168340
34.886623 1.334020 5.141187
34.804531 3.130804 5.175994
36.704884 3.471307 5.203028
33.953575 5.005150 5.189548
32.651897 3.304557 5.151597
33.256729 5.027830 3.529835
31.956509 5.005883 5.164978
35.136841 5.027183 3.599475
32.201050 2.639707 2.566463
34.597263 5.050379 1.892208
32.670727 3.401937 0.152006
33.190269 0.026970 3.415063
30.963734 0.031415 3.184455
31.268648 1.653033 5.105808
33.201088 1.606043 5.129544
30.624992 3.327827 5.122163
28.618561 3.345582 5.083341
29.279272 1.673172 5.072381
30.013285 2.546293 2.578470
27.956526 2.541893 2.537565
26.618670 3.360576 5.040896
27.277950 1.686026 5.028194
24.664612 5.078773 1.689937
22.012960 5.072206 -0.000381
21.348625 3.419426 -0.018150
22.748600 1.782413 -0.027857
20.008604 5.077564 -0.003972
19.345114 3.416259 -0.026393
18.651768 5.061729 1.651013
17.990093 5.069560 -0.009757
17.331659 3.401519 -0.021765
15.977315 5.046155 -0.008073
16.644316 5.045764 1.655539
14.641682 5.021790 1.672165
13.695350 2.947685 3.283843
13.013873 1.293491 5.003911
12.684929 -0.020198 3.329041
14.028413 -0.019731 4.982436
11.288963 1.578111 5.017430
10.672044 -0.031154 3.345237
12.019979 -0.035025 4.995211
10.009652 -0.036053 5.009408
11.334368 -0.018401 1.679473
9.310354 -0.022702 1.690742
10.004317 -0.010986 0.018739
8.691627 1.650187 0.027206
7.998522 4.993567 0.049822
9.988876 4.989257 0.041845
11.225941 2.614935 3.316357
9.251569 4.968199 3.350953
10.744711 3.274767 5.035987
11.304458 4.972518 3.368689
10.000134 4.965377 5.044104
11.995904 4.970618 5.032678
8.002422 4.963487 5.054917
8.743102 3.351849 5.038376
6.971263 4.975847 3.160611
5.356386 3.357236 5.006971
6.003514 4.980484 5.031474
7.033765 3.649420 5.030996
5.137977 2.367034 3.139412
4.624568 5.005222 3.305012
3.486218 3.197299 4.998466
4.002698 5.003687 5.009324
2.370468 5.006032 3.279779
4.844886 1.606301 -0.007080
4.901392 -0.001458 1.863083
6.730351 1.635903 0.014557
7.010038 2.537923 2.216525
8.656017 -0.025465 3.356199
17.307858 5.042696 3.315861
15.306504 5.019630 3.331420
15.979639 5.017306 4.995584
14.726640 1.604697 4.992389
15.258636 3.312282 4.999915
12.004478 0.000685 0.006965
15.326776 3.376882 -0.006043
13.974295 5.022236 0.009007
12.647771 4.995170 1.694507
13.313245 4.987454 3.358532
7.240184 -0.020138 1.704626
6.666237 -0.019342 3.385096
4.910261 1.641397 4.995151
5.989416 -0.022982 4.992341
4.911947 -0.004030 3.647981
3.995692 -0.001938 4.982804
7.049690 1.858028 5.019640
7.999882 -0.031333 5.010081
9.284076 1.654933 5.022995
20.976675 1.928050 4.964840
22.677931 3.436881 4.993485
23.970196 5.042509 5.017766
24.633892 3.384666 5.007858
23.311892 5.060313 3.345744
27.311974 5.040500 3.408199
26.668753 5.071645 1.728811
25.315355 5.056207 3.361588
35.197632 1.682199 0.157956
36.881695 1.528952 0.174157
39.971439 3.267500 3.877363
40.001114 1.675315 2.828131
38.297039 5.039097 2.793271
40.010288 3.309130 2.154399
39.978123 5.023970 3.615225
37.943813 4.986243 5.257710
39.944477 5.005232 5.279239
39.951187 3.330270 5.250550
39.953506 1.661225 5.232282
39.996487 0.034471 3.538333
40.032177 0.061816 1.876210
40.054165 0.092105 0.206175
40.051529 1.760752 0.239462
40.042557 3.426849 0.266243
38.349316 2.553647 0.217730
38.028229 5.083547 0.257177
40.003521 5.063599 1.947660
36.812756 5.020605 3.777888
36.511059 5.041573 2.047505
36.548523 3.252295 0.197359
36.030708 5.067247 0.216742
34.627708 3.377275 0.171326
34.032063 5.073954 0.189145
30.689285 3.417877 0.126802
30.040922 5.089456 0.142087
32.038574 5.078568 0.166318
30.659811 5.054797 1.816587
28.696938 3.436344 0.088709
26.703888 0.041988 3.374283
27.274485 0.066089 1.690837
25.276127 1.705208 5.001659
23.966957 0.034426 4.957167
25.957008 0.019111 4.979199
24.985033 0.045999 3.645229
23.237801 1.746058 4.976073
23.266729 0.062941 3.339504
21.257906 0.056290 3.254326
21.981333 0.044688 4.954439
19.992229 0.028522 4.943713
17.977295 5.031947 4.980978
19.968542 5.037520 4.988988
22.743742 0.077106 1.642677
25.003374 0.073539 1.850617
24.022961 0.098793 -0.036957
26.032059 0.098235 -0.015783
26.031599 5.091308 0.054809
25.683081 2.280690 3.496244
28.667919 5.065475 1.778201
28.042080 5.095512 0.099126
25.961100 5.034234 5.043643
11.976997 5.003779 0.036721
13.004647 3.083309 5.021747
13.988189 4.995161 5.017179
21.967649 5.041711 5.009216
28.712662 0.033509 3.341670
29.308167 5.036420 3.457664
29.959150 5.007206 5.131851
31.294727 5.027395 3.494883
31.959721 -0.000129 5.086016
33.958393 0.000022 5.108885
35.950645 4.996427 5.216403
32.640900 5.050172 1.846248
20.698215 1.748725 -0.046914
20.736673 0.071697 1.550967
24.013731 5.078814 0.013996
27.956337 5.017026 5.088613
40.024212 5.095801 0.282478
3.182775 1.470551 4.992335
0.000000 3.103853 1.750106
0.000000 5.000000 1.666667
0.000000 3.333333 0.000000
2.000431 4.997734 0.007399
0.000000 5.000000 0.000000
0.000000 5.000000 3.333333
0.000000 0.000000 3.333333
1.699508 2.473523 4.997608
3.037680 0.003067 3.376428
2.001688 0.002251 4.991245
0.000000 2.403264 3.370902
0.000000 1.666667 5.000000
0.000000 3.333333 5.000000
0.000000 0.000000 5.000000
27.952204 0.017395 5.016907
29.952543 0.004919 5.055259
36.041267 0.080851 0.136252
39.954506 -0.008465 5.202169
8.005643 -0.013089 0.015929
2.000619 5.003866 5.001321
3.161344 1.463311 -0.006724
3.993852 0.008062 -0.013009
22.017225 0.080247 -0.052146
0.000000 5.000000 5.000000
6.002032 -0.009565 -0.002233

CELLS 734 3670
4 0 1 2 3
4 0 4 2 5
4 0 3 2 6
4 4 6 0 2
4 4 6 7 0
4 8 9 10 11
4 12 13 14 15
4 16 17 14 18
4 19 20 18 21
4 20 22 21 23
4 24 25 26 23
4 25 27 26 23
4 26 28 29 30
4 28 29 31 32
4 33 34 32 31
4 31 33 35 32
4 31 33 36 35
4 33 37 36 35
4 38 39 40 31
4 41 42 43 38
4 44 42 45 38
4 44 42 38 43
4 46 38 42 41
4 46 47 40 48
4 49 50 51 52
4 53 54 51 55
4 56 54 55 57
4 56 58 59 57
4 60 59 61 62
4 63 61 64 65
4 66 67 68 69
4 67 70 71 72
4 73 74 75 76
4 74 77 75 76
4 77 78 79 80
4 79 81 75 80
4 77 78 80 82
4 77 83 76 84
4 83 85 76 84
4 85 86 74 84
4 74 86 87 84
4 88 89 86 90
4 91 89 88 90
4 86 88 90 92
4 90 86 92 74
4 86 89 74 90
4 93 94 95 74
4 70 74 72 93
4 70 73 71 72
4 74 96 73 72
4 66 97 93 72
4 96 97 72 93
4 96 98 97 93
4 85 96 74 99
4 96 98 93 99
4 98 89 100 93
4 101 102 100 103
4 104 105 101 106
4 107 58 57 60
4 58 107 57 56
4 53 108 109 55
4 56 110 109 54
4 53 111 109 108
4 112 53 109 52
4 111 112 113 53
4 112 111 113 114
4 115 116 114 117
4 40 28 115 117
4 45 117 118 28
4 119 28 25 44
4 120 44 121 122
4 123 121 124 125
4 125 123 126 124
4 127 128 21 124
4 16 129 128 21
4 16 18 14 130
4 16 17 18 19
4 131 17 132 18
4 16 19 18 21
4 133 16 19 134
4 135 134 133 136
4 135 137 136 138
4 137 134 139 140
4 141 142 143 144
4 145 146 147 7
4 142 148 147 146
4 7 146 147 149
4 10 7 9 146
4 145 150 7 151
4 152 151 150 153
4 16 128 154 124
4 124 21 121 133
4 25 28 30 44
4 28 38 45 40
4 45 47 40 42
4 155 45 156 47
4 157 156 47 155
4 155 45 40 117
4 45 42 158 159
4 44 42 43 158
4 119 45 158 159
4 120 44 158 119
4 25 127 21 121
4 25 27 160 30
4 127 25 160 30
4 25 127 121 30
4 44 25 121 30
4 28 30 44 29
4 119 28 44 45
4 119 28 118 25
4 28 24 26 161
4 26 32 29 28
4 28 31 29 38
4 46 38 41 39
4 46 38 39 40
4 28 117 40 45
4 118 28 117 161
4 162 24 118 161
4 118 119 163 164
4 136 119 164 163
4 25 133 21 163
4 128 16 21 124
4 165 166 153 154
4 166 167 168 169
4 167 168 169 170
4 171 168 172 166
4 124 173 126 154
4 123 121 133 124
4 120 125 122 121
4 122 158 44 43
4 47 46 40 42
4 52 50 174 48
4 175 50 174 54
4 176 175 177 178
4 179 60 180 181
4 64 69 63 65
4 68 72 67 66
4 70 73 182 71
4 74 79 183 75
4 184 78 185 79
4 79 184 186 187
4 186 184 188 187
4 184 189 190 191
4 184 78 79 186
4 78 189 184 191
4 189 184 190 188
4 184 78 191 192
4 184 78 192 185
4 192 78 80 185
4 193 80 194 185
4 195 81 196 194
4 81 79 196 194
4 197 187 196 198
4 187 79 185 196
4 79 184 187 185
4 197 199 187 198
4 199 197 187 200
4 199 200 187 186
4 78 201 79 186
4 189 201 87 78
4 202 201 79 74
4 201 74 92 87
4 201 202 92 74
4 201 202 79 186
4 202 203 74 79
4 202 198 203 79
4 204 202 199 203
4 202 203 205 74
4 202 204 205 203
4 182 203 74 205
4 74 203 183 79
4 79 203 183 198
4 79 81 198 183
4 81 79 198 196
4 187 79 196 198
4 202 198 79 186
4 202 204 94 205
4 94 95 205 206
4 207 208 209 210
4 208 207 211 210
4 104 103 211 65
4 104 60 212 213
4 214 215 216 217
4 218 219 220 221
4 222 174 220 221
4 46 39 222 174
4 52 46 40 48
4 40 49 52 48
4 53 49 52 113
4 40 49 155 113
4 155 45 47 40
4 157 47 223 155
4 49 223 224 48
4 52 50 51 54
4 175 54 57 178
4 218 175 54 57
4 225 219 54 57
4 218 175 57 177
4 57 217 219 218
4 219 225 226 57
4 225 227 226 57
4 59 110 57 227
4 59 60 61 228
4 61 60 213 228
4 64 61 213 228
4 63 61 213 64
4 61 104 211 65
4 180 60 104 62
4 58 229 62 180
4 58 60 180 62
4 60 61 104 62
4 60 226 230 212
4 226 60 213 212
4 60 104 212 230
4 179 60 230 104
4 104 211 231 62
4 180 229 62 232
4 180 232 62 231
4 179 60 104 180
4 233 181 105 179
4 181 105 179 230
4 105 214 106 230
4 105 214 230 177
4 215 214 218 217
4 215 217 218 219
4 218 215 219 221
4 218 175 174 54
4 39 52 220 174
4 39 46 52 174
4 115 52 112 35
4 28 115 117 161
4 162 118 116 161
4 24 162 118 163
4 20 19 234 163
4 25 133 163 119
4 120 119 158 235
4 236 119 235 159
4 235 119 158 159
4 119 235 133 136
4 138 235 236 164
4 45 47 42 159
4 46 38 40 42
4 49 50 52 48
4 237 175 176 178
4 181 233 177 176
4 180 179 231 104
4 207 103 65 211
4 207 103 68 65
4 65 66 103 68
4 103 66 97 93
4 66 103 97 63
4 213 104 63 238
4 238 97 103 63
4 104 102 103 238
4 104 106 212 230
4 214 212 106 230
4 214 212 216 106
4 214 212 217 216
4 214 212 230 217
4 226 217 230 212
4 226 60 230 57
4 181 60 57 230
4 179 105 104 230
4 179 105 101 104
4 104 239 103 101
4 239 101 240 100
4 91 241 240 100
4 241 239 240 100
4 239 241 103 100
4 103 210 93 241
4 103 207 93 210
4 210 103 231 239
4 103 239 104 231
4 103 104 63 65
4 65 66 63 103
4 65 66 68 69
4 68 72 66 93
4 96 98 242 97
4 85 96 99 243
4 85 86 99 74
4 86 89 99 74
4 88 86 244 92
4 74 86 92 87
4 201 244 87 92
4 244 86 87 92
4 90 74 92 94
4 94 95 206 245
4 95 209 206 245
4 245 207 95 209
4 208 232 231 211
4 180 104 231 62
4 181 60 107 57
4 54 175 51 178
4 50 52 174 54
4 246 36 52 247
4 246 36 37 35
4 52 31 36 35
4 31 39 52 36
4 39 46 222 41
4 39 222 174 220
4 174 218 220 221
4 218 219 54 220
4 225 219 220 54
4 56 110 54 57
4 110 56 59 57
4 60 59 226 228
4 60 226 213 228
4 57 217 230 226
4 214 217 230 218
4 218 57 230 177
4 181 105 230 177
4 179 60 181 230
4 58 107 180 60
4 229 107 58 248
4 229 107 180 58
4 60 58 59 62
4 58 107 56 248
4 108 56 109 55
4 108 56 55 248
4 107 56 55 57
4 107 181 57 178
4 57 181 177 178
4 181 176 177 178
4 233 181 177 105
4 249 239 101 240
4 91 89 241 100
4 89 91 241 90
4 210 245 93 241
4 245 241 90 93
4 93 94 90 245
4 74 202 92 94
4 205 204 94 206
4 202 198 199 203
4 202 198 186 199
4 199 197 200 250
4 199 186 187 198
4 200 186 188 187
4 184 189 186 188
4 201 189 87 244
4 189 201 78 186
4 201 78 79 87
4 189 78 184 186
4 186 79 187 198
4 74 201 79 87
4 74 79 84 87
4 79 78 84 87
4 77 78 84 79
4 74 77 84 79
4 74 85 84 76
4 83 243 76 85
4 85 96 243 76
4 73 96 74 76
4 96 93 74 99
4 89 93 99 74
4 93 94 74 90
4 93 94 245 95
4 207 95 68 93
4 95 70 68 93
4 95 70 74 205
4 74 70 182 205
4 94 95 74 205
4 241 89 90 93
4 104 179 231 239
4 181 60 180 107
4 107 57 55 178
4 57 54 55 178
4 53 49 51 52
4 40 49 113 52
4 155 47 223 48
4 45 47 159 156
4 119 156 45 159
4 120 44 119 121
4 16 173 124 154
4 166 167 169 145
4 145 7 147 251
4 9 7 252 149
4 253 254 252 255
4 256 253 255 254
4 6 9 252 255
4 253 257 149 252
4 7 258 259 260
4 260 261 251 170
4 169 260 251 170
4 169 251 167 170
4 166 167 145 171
4 16 22 18 130
4 25 24 20 23
4 24 25 118 28
4 119 156 118 45
4 119 28 45 118
4 119 45 44 158
4 44 38 28 29
4 25 28 26 30
4 25 24 26 28
4 24 20 234 163
4 162 24 234 163
4 163 119 118 25
4 235 135 133 136
4 135 134 140 133
4 145 141 153 144
4 145 260 169 151
4 0 258 4 5
4 259 258 262 263
4 264 259 262 263
4 258 7 262 0
4 260 258 259 261
4 258 261 263 259
4 261 258 263 265
4 261 260 251 259
4 167 251 169 145
4 145 260 251 169
4 166 167 171 168
4 16 171 153 140
4 137 135 136 134
4 138 135 235 136
4 235 138 136 164
4 236 119 156 164
4 157 156 159 47
4 155 47 48 40
4 40 49 48 155
4 46 52 174 48
4 247 225 220 54
4 110 225 57 227
4 60 59 57 226
4 104 61 211 62
4 232 211 62 231
4 103 104 211 231
4 239 210 103 241
4 241 93 103 100
4 68 72 93 70
4 103 207 68 93
4 207 103 211 210
4 210 208 231 211
4 103 210 231 211
4 245 207 210 93
4 245 207 209 210
4 245 207 93 95
4 70 95 74 93
4 70 73 74 182
4 182 203 183 74
4 202 74 205 94
4 93 89 90 74
4 89 241 100 93
4 93 98 103 100
4 101 104 102 103
4 104 101 102 106
4 106 238 104 212
4 266 216 212 106
4 106 238 212 266
4 106 238 102 104
4 267 266 238 102
4 97 102 267 238
4 106 238 266 102
4 97 102 238 103
4 97 102 103 98
4 97 102 98 267
4 97 98 242 267
4 96 98 99 242
4 89 98 99 93
4 239 101 100 103
4 104 179 239 101
4 179 249 239 101
4 105 179 101 249
4 233 105 249 179
4 177 181 57 230
4 175 57 177 178
4 175 237 51 178
4 55 54 51 178
4 112 111 109 53
4 112 53 52 113
4 117 115 113 114
4 116 118 117 161
4 115 116 117 161
4 28 115 161 32
4 29 32 26 34
4 26 30 29 27
4 34 26 29 27
4 29 34 31 32
4 31 115 32 35
4 31 115 28 32
4 246 112 52 35
4 246 247 52 54
4 247 110 225 54
4 59 227 57 226
4 213 104 238 212
4 104 103 63 238
4 97 98 103 93
4 70 73 72 74
4 71 182 268 73
4 182 75 268 73
4 182 75 183 268
4 183 81 268 75
4 182 75 74 183
4 79 81 183 75
4 79 81 80 194
4 78 192 80 82
4 192 193 80 82
4 269 193 192 82
4 193 192 80 185
4 80 79 194 185
4 77 74 75 79
4 85 96 76 74
4 96 243 242 99
4 98 102 103 100
4 104 105 106 230
4 214 218 230 177
4 50 175 51 54
4 49 155 223 48
4 157 156 236 159
4 236 119 159 156
4 235 119 164 136
4 236 119 164 235
4 133 235 120 123
4 120 235 133 119
4 135 123 235 133
4 124 173 123 126
4 173 172 126 154
4 166 171 154 172
4 172 171 154 173
4 171 16 154 173
4 171 166 154 153
4 16 171 154 153
4 124 173 16 133
4 124 173 133 123
4 25 133 119 121
4 19 16 133 21
4 163 19 133 21
4 134 19 133 136
4 133 119 136 163
4 133 19 163 136
4 132 20 18 19
4 20 132 234 19
4 20 19 163 21
4 22 20 21 18
4 16 22 21 18
4 128 129 127 21
4 160 129 21 127
4 160 21 25 127
4 25 20 21 23
4 25 27 23 160
4 25 27 30 26
4 23 22 21 160
4 16 129 21 22
4 128 130 165 270
4 128 130 270 129
4 128 130 16 165
4 16 165 153 154
4 17 16 14 153
4 131 17 18 14
4 17 141 153 15
4 12 10 15 153
4 15 17 14 153
4 153 16 14 130
4 16 129 22 130
4 128 130 129 16
4 16 128 165 154
4 151 166 153 165
4 260 145 7 151
4 9 6 252 7
4 7 262 252 149
4 260 259 7 251
4 7 259 147 251
4 264 259 271 149
4 259 7 147 149
4 146 148 147 149
4 271 259 147 149
4 148 271 147 149
4 146 142 143 141
4 144 141 140 139
4 141 134 140 139
4 143 141 144 139
4 142 145 141 146
4 145 142 141 144
4 148 142 143 146
4 145 7 10 146
4 145 150 151 153
4 151 272 150 7
4 151 272 273 150
4 151 272 4 273
4 4 272 2 273
4 151 272 7 4
4 4 260 7 151
4 166 145 151 153
4 166 145 169 151
4 171 166 153 145
4 133 16 140 173
4 124 16 21 133
4 25 21 160 23
4 21 129 160 22
4 121 21 124 127
4 121 120 133 119
4 123 121 125 120
4 123 121 120 133
4 25 133 121 21
4 25 20 163 21
4 118 24 28 161
4 26 28 161 32
4 40 115 28 31
4 115 52 113 112
4 246 112 109 52
4 246 52 109 54
4 56 54 109 55
4 56 107 55 248
4 58 60 59 57
4 63 61 65 104
4 68 72 70 67
4 182 75 73 74
4 77 79 75 80
4 196 79 185 194
4 79 78 185 80
4 77 78 82 84
4 83 77 82 84
4 77 74 84 76
4 96 74 93 72
4 103 66 93 68
4 65 66 69 63
4 63 61 104 213
4 61 60 104 213
4 59 227 226 228
4 274 110 227 225
4 246 36 247 37
4 246 36 35 52
4 52 115 40 31
4 28 31 38 40
4 44 42 158 45
4 120 44 122 158
4 135 133 140 173
4 171 16 173 140
4 171 144 153 140
4 141 144 140 153
4 10 141 15 153
4 10 12 15 13
4 10 8 12 13
4 8 10 12 11
4 8 9 11 255
4 9 253 149 252
4 257 262 149 252
4 262 259 149 7
4 258 7 4 260
4 259 258 7 262
4 262 0 7 252
4 0 6 7 252
4 254 6 252 255
4 0 3 6 252
4 6 3 254 252
4 272 6 11 7
4 4 6 272 7
4 4 6 2 272
4 9 6 11 255
4 9 253 252 255
4 262 264 257 149
4 257 264 275 271
4 259 264 262 149
4 257 264 271 149
4 9 146 7 149
4 10 7 11 9
4 7 12 10 11
4 145 150 153 12
4 12 145 10 153
4 145 146 10 141
4 145 142 147 146
4 171 145 153 144
4 171 142 145 144
4 142 171 145 167
4 142 145 147 167
4 167 145 147 251
4 145 260 7 251
4 145 150 12 7
4 12 145 7 10
4 12 152 153 14
4 152 153 14 130
4 152 151 153 165
4 165 152 276 270
4 152 151 165 276
4 165 152 270 130
4 152 151 276 150
4 276 150 151 273
4 272 7 11 150
4 7 12 11 150
4 153 150 152 12
4 165 16 153 130
4 165 152 130 153
4 15 12 153 14
4 13 131 14 15
4 17 131 15 14
4 17 132 18 19
4 25 24 163 20
4 25 24 118 163
4 119 156 164 118
4 118 117 45 156
4 155 45 117 156
4 113 40 117 155
4 50 49 224 48
4 49 50 224 51
4 50 237 224 51
4 237 50 175 51
4 52 54 220 174
4 52 247 220 54
4 39 247 220 52
4 39 247 52 36
4 115 52 35 31
4 40 115 52 113
4 40 115 113 117
4 115 112 113 114
4 53 52 51 54
4 54 53 109 55
4 52 53 109 54
4 110 246 109 54
4 247 110 54 246
4 247 110 274 225
4 246 274 37 247
4 247 110 246 274
4 110 225 54 57
4 57 217 226 219
4 57 217 218 230
4 219 218 54 57
4 218 54 174 220
4 46 39 52 40
4 39 31 52 40
4 38 42 45 40
4 28 38 44 45
4 121 25 44 119
4 123 135 173 133
4 134 153 140 16
4 134 16 140 133
4 137 135 134 140
4 134 153 141 140
4 134 153 16 17
4 16 17 19 134
4 134 153 17 141
4 153 145 10 141
4 6 9 11 7
4 258 7 0 4
4 1 0 2 5

CELL_TYPES 734
10
10
10
10
10
10
10
10
10
10
10
10
10
10
10
10
10
10
10
10
10
10
10
10
10
10
10
10
10
10
10
10
10
10
10
10
10
10
10
10
10
10
10
10
10
10
10
10
10
10
10
10
10
10
10
10
10
10
10
10
10
10
10
10
10
10
10
10
10
10
10
10
10
10
10
10
10
10
10
10
10
10
10
10
10
10
10
10
10
10
10
10
10
10
10
10
10
10
10
10
10
10
10
10
10
10
10
10
10
10
10
10
10
10
10
10
10
10
10
10
10
10
10
10
10
10
10
10
10
10
10
10
10
10
10
10
10
10
10
10
10
10
10
10
10
10
10
10
10
10
10
10
10
10
10
10
10
10
10
10
10
10
10
10
10
10
10
10
10
10
10
10
10
10
10
10
10
10
10
10
10
10
10
10
10
10
10
10
10
10
10
10
10
10
10
10
10
10
10
10
10
10
10
10
10
10
10
10
10
10
10
10
10
10
10
10
10
10
10
10
10
10
10
10
10
10
10
10
10
10
10
10
10
10
10
10
10
10
10
10
10
10
10
10
10
10
10
10
10
10
10
10
10
10
10
10
10
10
10
10
10
10
10
10
10
10
10
10
10
10
10
10
10
10
10
10
10
10
10
10
10
10
10
10
10
10
10
10
10
10
10
10
10
10
10
10
10
10
10
10
10
10
10
10
10
10
10
10
10
10
10
10
10
10
10
10
10
10
10
10
10
10
10
10
10
10
10
10
10
10
10
10
10
10
10
10
10
10
10
10
10
10
10
10
10
10
10
10
10
10
10
10
10
10
10
10
10
10
10
10
10
10
10
10
10
10
10
10
10
10
10
10
10
10
10
10
10
10
10
10
10
10
10
10
10
10
10
10
10
10
10
10
10
10
10
10
10
10
10
10
10
10
10
10
10
10
10
10
10
10
10
10
10
10
10
10
10
10
10
10
10
10
10
10
10
10
10
10
10
10
10
10
10
10
10
10
10
10
10
10
10
10
10
10
10
10
10
10
10
10
10
10
10
10
10
10
10
10
10
10
10
10
10
10
10
10
10
10
10
10
10
10
10
10
10
10
10
10
10
10
10
10
10
10
10
10
10
10
10
10
10
10
10
10
10
10
10
10
10
10
10
10
10
10
10
10
10
10
10
10
10
10
10
10
10
10
10
10
10
10
10
10
10
10
10
10
10
10
10
10
10
10
10
10
10
10
10
10
10
10
10
10
10
10
10
10
10
10
10
10
10
10
10
10
10
10
10
10
10
10
10
10
10
10
10
10
10
10
10
10
10
10
10
10
10
10
10
10
10
10
10
10
10
10
10
10
10
10
10
10
10
10
10
10
10
10
10
10
10
10
10
10
10
10
10
10
10
10
10
10
10
10
10
10
10
10
10
10
10
10
10
10
10
10
10
10
10
10
10
10
10
10
10
10
10
10
10
10
10
10
10
10
10
10
10
10
10
10
10
10
10
10
10
10
10
10
10
10
10
10
10
10
10
10
10
10
10
10
10
10
10
10
10
10
10
10
10
10
10
10
10
10
10
10
10
10
10
10
10
10
10
10
10
10
10
10
10
10
10
10
10
10
10
10
10
10
10
10
10
10
10
10
10
10
10
10
10
10
10
10
10
10
10
10
10
10
10
10
10
10
10
10
10
10

CELL_DATA 734
SCALARS potentialEnergy FLOAT 1
LOOKUP_TABLE default
62.439304
38.647568
23.770347
51.108364
70.629669
64.123951
70.561958
84.470764
47.092163
140.959274
112.506340
159.441040
177.356247
79.696686
160.238861
230.328781
102.246063
84.182449
166.879028
213.418854
258.643356
70.143471
179.235809
104.076591
161.884354
87.813385
97.046425
221.025360
65.610493
64.266022
54.877205
42.677628
48.798073
67.106434
54.801243
229.455917
52.472549
134.875160
40.254116
64.605148
118.310257
65.881538
57.569420
98.167412
72.298187
79.817253
53.141315
47.085701
105.459587
69.646152
63.749611
114.315887
44.318573
75.893616
60.399818
123.748253
46.688770
51.922192
84.471489
129.640167
58.875210
79.739388
58.380482
188.724335
105.529793
202.202774
148.335724
233.602142
135.440170
272.848602
22.691469
55.785324
118.861671
30.328924
20.544457
99.906967
98.509697
84.891075
31.556999
111.893517
38.123947
146.256729
39.303747
135.568176
160.369431
61.024044
84.672455
87.210014
57.070835
144.886749
84.860764
71.917202
193.615692
167.704910
137.799652
140.833603
170.962097
186.157074
164.979843
65.334873
182.720779
108.595894
139.397812
130.714180
112.049446
99.766907
54.120159
265.229431
234.852905
370.785706
142.618362
90.670425
75.518272
115.823349
317.350677
138.371780
236.334290
126.016838
255.167923
69.523586
81.669182
57.808670
95.501564
81.920456
99.802032
119.270157
56.977745
62.015060
57.928631
63.041683
365.892029
84.189484
47.936176
19.462464
164.174271
80.646378
45.472355
36.486252
54.349575
65.598259
76.240845
103.604843
111.377769
48.840706
75.905396
174.275558
62.659924
52.729870
64.741611
60.439384
272.277740
124.681473
43.161011
52.101631
53.462223
51.946198
85.230103
50.842094
63.885590
46.696716
63.481319
100.611778
46.534718
53.412998
296.783813
111.351082
137.873184
72.450779
71.546177
45.533581
44.451534
59.701725
81.890793
77.843948
144.175873
64.969898
51.054691
53.949463
56.415386
30.917009
105.903915
64.435966
103.192413
202.759369
116.154816
110.672531
180.934235
330.479797
171.467010
89.016304
199.929428
179.182220
55.965473
54.122921
48.302414
60.932266
41.209511
126.789207
94.899628
57.951611
78.916527
252.388367
77.459923
56.077972
22.654579
68.160194
78.896423
129.157387
87.640221
263.026627
80.136375
30.519140
70.091305
45.857075
80.910072
71.203682
103.551208
73.772667
99.119888
148.546280
181.647949
115.267326
102.106934
100.087952
87.699425
195.356659
115.801788
186.375565
190.045456
181.619614
162.862747
49.585461
105.548752
39.377693
118.776237
74.000320
258.437561
221.511017
109.039497
157.425079
157.322830
495.215942
119.412247
46.786156
150.096237
177.909149
41.665678
21.578696
54.493031
27.572670
23.960865
49.933617
36.220680
47.027420
97.401711
139.014633
114.313454
100.218559
93.262794
128.644447
36.452663
94.318481
89.536919
125.534889
57.211819
50.810825
48.952595
55.368080
57.214943
21.920082
76.229065
55.562328
62.171135
106.126625
97.334465
31.865005
68.150673
23.807238
46.530964
76.521011
27.732208
54.861004
128.212852
20.755603
88.549065
25.646420
24.664639
58.486816
57.600067
58.692894
186.021133
75.769005
64.757957
96.933937
151.815842
114.691254
190.089447
193.405151
303.763672
119.794830
50.235512
36.051302
54.605057
159.007904
243.172012
88.310944
84.527550
74.380142
152.083344
141.662308
208.280823
151.871735
174.405457
232.752487
35.065424
112.725723
84.065651
52.291180
28.234003
79.344994
53.260685
119.987389
40.165222
176.686447
111.867676
32.792028
33.580912
23.741506
18.753642
15.338172
39.370607
36.248907
33.196394
38.920715
105.482323
12.743919
77.297081
100.267677
59.839275
60.473766
30.843376
88.063492
59.036442
80.487518
75.826408
56.522861
78.952248
88.544090
89.439941
73.699844
39.235466
64.263123
96.189644
74.128944
26.981300
32.778965
67.139019
73.359482
61.125702
47.810780
47.107464
27.750053
109.716629
210.877045
57.461666
80.015106
24.459580
172.714722
57.352001
172.020706
272.269623
56.609638
109.400139
169.925430
66.438072
305.146729
21.007104
19.267180
147.372055
17.306348
64.068394
46.260498
36.662468
54.477928
278.084412
28.333467
68.318542
221.087143
236.280807
304.657043
222.639526
195.173767
174.286850
159.936966
37.682781
85.362015
294.975281
26.154169
22.671261
263.958939
67.761562
78.266479
17.905683
15.444121
21.231000
51.106361
76.722847
40.827356
37.132809
54.619781
171.227798
73.790916
273.908661
23.825072
60.465919
83.864220
322.262299
111.587952
127.355949
74.115616
109.036072
132.834305
94.049934
70.414341
44.630165
22.705318
82.927628
80.345703
51.326653
67.713882
15.270429
78.540337
93.354736
96.112770
51.997749
93.648582
100.371162
35.266033
66.452477
70.732216
48.153618
46.314991
48.430496
17.425256
78.323921
45.651058
59.358589
34.169621
36.196882
72.395298
52.985485
23.651050
43.883507
45.532906
37.725294
30.874414
57.574028
27.631252
61.873528
81.268799
98.330757
53.695210
70.226711
102.144699
136.402138
50.189754
56.587597
102.297653
76.678093
197.189987
84.472946
65.790283
60.056507
121.800964
83.650185
135.987457
157.677460
82.723450
171.409180
163.262894
113.102722
230.559601
120.256737
75.151550
39.809309
35.190207
14.877131
51.433098
82.565056
56.902992
52.543766
139.476105
115.684090
144.662430
108.382919
84.976707
58.260529
86.709129
73.587662
42.586891
41.490376
94.911247
24.973888
42.233200
59.209560
95.582977
51.470440
204.704086
162.065918
306.320038
63.901619
165.576736
43.774605
37.926414
61.246582
40.468071
80.325127
62.606533
54.050842
156.069962
157.223511
83.497269
65.613461
63.010666
62.012550
60.975140
70.619530
52.234493
103.757133
58.556816
51.659832
94.803757
79.729301
29.876982
30.547506
71.207623
62.123028
70.089905
69.059738
103.701515
124.021469
62.565479
58.657642
30.442120
12.972931
61.470676
98.034676
101.379700
44.408939
91.274612
237.241104
182.942169
92.349022
68.062176
14.230469
55.923092
187.048523
121.873245
94.971718
111.155151
25.012612
23.372065
31.185238
27.217194
62.899269
35.431873
82.317307
208.200409
64.199078
95.387276
124.791328
346.987366
211.689865
148.006058
197.390869
234.556702
41.484518
28.378975
21.041448
105.497849
77.254059
49.154556
284.287933
192.127930
346.075745
111.223854
18.964527
49.305267
47.654884
60.132019
55.446533
36.917509
47.103050
83.376144
172.083954
187.086884
118.828972
311.471558
254.152679
147.202545
122.256210
88.690826
55.342648
54.704704
129.140648
18.717857
59.727005
87.290451
62.863922
146.548355
62.991108
79.799515
119.451286
66.928596
47.223499
32.508535
118.031487
91.401886
99.431366
72.693127
28.442097
136.111366
163.629288
153.150955
290.422180
63.953022
29.138250
133.258247
60.872608
100.256241
178.378952
85.016304
70.445351
74.213295
187.008163
52.682751
19.669673
77.751595
23.817962
17.694692
18.157671
36.696323
52.915009
39.033209
37.985298
197.827316
160.084656
61.594021
121.609360
73.631641
19.861138
14.805216
19.170010
15.616508
114.558670
103.171387
76.012604
195.890457
216.028183
257.009262
132.718506
302.210541
185.158035
224.880142
102.157051
49.199905
63.758583
145.363602
120.230118
164.691193
87.097031
180.264221
57.749546
113.237679
37.532455
113.845390
88.156334
71.160145
78.058006
131.651337
47.832184
40.928833
212.222839
147.780151
72.315434
77.600540
157.048813
233.193497
270.197021
110.751366
122.064484
88.096535
130.066048
28.653233
25.997464
21.684458
40.969168
40.185190
125.655510
167.111908
231.230286
119.817734
97.685913
162.636429
112.444168
57.590263
123.600616
81.967987
92.012444
50.131348
56.084488
59.437046
81.646233
114.775345
160.046478
62.716137
305.668274
175.965134
170.553940
169.828583
224.684250
90.098289
63.462036
158.333267
50.675556
33.187262
153.482651
73.583565
124.127716
169.211990
203.256073
136.584305
106.215225
51.197517

