# vtk DataFile Version 3.1
Tetrahedral Mesh Visualization
ASCII
DATASET UNSTRUCTURED_GRID

POINTS 277 FLOAT
0.000000 1.378113 1.754166
0.000000 0.000000 0.000000
2.001419 0.002082 -0.009130
0.000000 1.666667 0.000000
2.418686 0.002278 1.725552
0.000000 0.000000 1.666667
1.697586 2.466348 -0.002826
2.999197 2.453355 2.321951
4.016431 4.993589 0.003280
3.081692 4.993836 1.637381
5.219185 4.999728 1.625245
3.502203 3.174719 0.000807
5.425866 3.307691 0.020544
6.025352 5.000231 0.029920
7.393245 3.334409 0.047815
6.986376 4.998201 1.364462
9.252201 2.173448 2.112295
8.712955 4.990950 1.677453
9.385389 3.321015 0.082415
10.680241 4.984032 1.767056
11.387150 3.321054 0.127933
11.123084 1.858309 1.679346
10.709834 1.661565 0.109390
12.711985 1.665885 0.156418
13.392867 3.328397 0.176491
12.990543 1.875357 1.657414
14.716513 1.665866 0.194150
14.041608 0.002915 0.176065
15.490932 2.145697 1.894591
15.354068 0.005094 1.853682
13.346925 0.002099 1.825062
17.318426 0.009426 1.871522
16.733490 1.675482 0.247360
18.067106 0.014517 0.286751
16.059191 0.018275 0.213016
18.740831 1.680505 0.315218
19.036558 0.011363 1.649659
20.070093 0.012922 0.375866
16.710579 0.008817 3.543464
18.980898 0.013873 3.439776
17.694763 2.695212 3.226227
17.918467 -0.005451 5.284930
16.615480 1.662221 5.247551
15.927536 -0.007808 5.218892
14.663027 0.003869 3.506013
15.758437 2.894675 3.572790
18.657093 1.697628 5.320964
17.248610 3.336231 5.274253
19.212351 3.387756 5.347513
19.305126 5.005887 3.694393
20.922243 3.674502 5.425682
21.301832 4.999159 3.777715
19.631760 2.508951 2.707715
20.687618 5.004288 2.073883
21.909586 2.515865 2.928799
22.681070 5.002410 2.166989
23.348637 3.397999 0.512860
23.972561 2.445526 2.829884
25.046795 3.670878 0.554942
25.039999 1.874076 0.547526
25.991138 2.478414 2.296305
27.302370 1.684497 0.576741
26.745846 3.375111 0.575575
29.285385 -0.016611 2.199071
28.037106 -0.013353 0.577639
29.349791 1.657507 0.592150
31.011875 -0.016288 1.929930
32.044792 -0.004537 0.625181
31.349735 1.657277 0.619017
30.044155 -0.013805 0.600814
33.316898 1.647914 0.642742
34.048634 0.000840 0.646487
32.704914 -0.013033 2.244147
34.620235 -0.004947 2.342955
34.988010 2.396288 3.207125
36.523514 -0.007610 2.505773
35.123512 -0.011130 4.056182
36.811836 -0.020031 4.235846
38.242569 2.496302 5.707116
37.692196 2.152339 2.890491
38.303410 -0.013649 3.236278
38.034668 0.008997 0.690466
37.958820 -0.017090 5.704525
35.951408 -0.029956 5.676840
36.506050 1.716904 5.689837
34.880985 1.311997 5.671784
34.796345 3.110094 5.671698
36.701885 3.449185 5.703391
33.937916 4.977023 5.663048
32.643559 3.268953 5.641376
33.245667 4.980445 4.000238
31.946289 4.966711 5.641814
35.128098 4.985122 4.075150
32.202370 2.584266 3.057083
34.593391 4.994150 2.365991
32.671772 3.321944 0.636104
33.194489 -0.019608 3.950867
30.973974 -0.028751 3.713897
31.269058 1.613035 5.610205
33.198566 1.574303 5.642517
30.623568 3.284273 5.607923
28.619246 3.295326 5.587484
29.281473 1.624931 5.594103
30.015657 2.475650 3.077185
27.956493 2.475719 3.060988
26.610529 3.305557 5.581308
27.278893 1.642084 5.576489
24.679884 4.990754 2.229558
22.081684 5.011006 0.465081
21.402843 3.355067 0.421642
22.794764 1.705840 0.489182
20.080887 5.013607 0.381770
19.402012 3.352452 0.341001
18.688019 5.012075 1.999190
18.076128 5.016426 0.310965
17.404392 3.344235 0.270246
16.069796 4.992804 0.229921
16.689081 5.003342 1.919175
14.690420 4.996130 1.872484
13.683538 2.960352 3.449316
12.943012 1.317033 5.150464
12.643311 -0.000154 3.472910
13.940063 -0.005962 5.158887
11.226190 1.600210 5.122757
10.633053 -0.004975 3.433389
11.944789 -0.015807 5.123989
9.948133 -0.018523 5.086493
11.334586 -0.005299 1.782383
9.313256 0.001605 1.739157
10.028791 0.007480 0.085299
8.710797 1.667456 0.066278
8.042693 4.993733 0.054306
10.050025 4.982841 0.095079
11.202530 2.636708 3.410441
9.239445 4.988224 3.381357
10.691984 3.298748 5.119430
11.291439 4.989494 3.453487
9.952634 4.992220 5.094449
11.945860 4.989213 5.142245
7.964963 4.996242 5.056277
8.700863 3.375482 5.075252
6.955614 5.009685 3.152751
5.334846 3.375483 5.037570
5.971511 5.014051 5.028796
6.998606 3.683584 5.049252
5.132023 2.377827 3.170392
4.611931 4.995267 3.303473
3.471954 3.185045 5.014111
3.979525 4.996641 5.011023
2.369562 4.999477 3.272071
4.859377 1.613701 0.015375
4.908529 0.011646 1.891618
6.745564 1.667841 0.037051
7.008567 2.571711 2.240222
8.627566 -0.002189 3.398405
17.306707 5.007219 3.611732
15.314724 5.009156 3.553683
15.936841 5.003391 5.245199
14.658700 1.608561 5.192606
15.210205 3.306390 5.214289
12.036555 0.002411 0.134629
15.396736 3.329989 0.208693
14.061787 4.996286 0.199798
12.682844 4.991217 1.825016
13.309822 4.995242 3.505754
7.244881 0.013146 1.727395
6.649305 -0.002594 3.409919
4.887316 1.648402 5.035902
5.969140 -0.006561 5.032650
4.899983 0.004076 3.683262
3.981839 -0.008194 5.010374
7.008730 1.884740 5.045310
7.952335 -0.008108 5.048634
9.231086 1.677604 5.087130
20.916794 1.887272 5.414701
22.631893 3.384277 5.492501
23.942066 4.980221 5.539382
24.601805 3.325279 5.545950
23.304688 4.989238 3.859126
27.310387 4.975342 3.931921
26.668840 4.976461 2.258830
25.313673 4.981883 3.910159
35.197659 1.613749 0.665073
36.871815 1.462142 0.690991
39.967365 3.234029 4.348264
39.993908 1.619860 3.317630
38.292618 4.994295 3.258311
39.996208 3.247463 2.621686
39.972145 4.990023 4.079844
37.945103 4.979183 5.723785
39.950340 4.991561 5.739188
39.944965 3.324840 5.722746
39.956371 1.654269 5.718711
39.988930 -0.006516 4.056929
40.004185 -0.001467 2.383479
40.027920 0.018003 0.710131
40.027206 1.680723 0.719015
40.023502 3.353454 0.730078
38.334732 2.481885 0.711388
38.028301 5.025423 0.733465
40.002407 5.005831 2.417325
36.807751 4.979484 4.262137
36.509972 4.999636 2.536977
36.544060 3.189101 0.700141
36.036087 5.008863 0.705329
34.631615 3.310633 0.664686
34.028740 4.994495 0.657849
30.689131 3.325688 0.614944
30.033237 4.994162 0.613645
32.028332 4.997015 0.637531
30.652773 4.984491 2.289016
28.701056 3.329414 0.585873
26.707806 -0.013134 3.954596
27.279270 -0.017721 2.264490
25.250103 1.657047 5.545209
23.923561 -0.002493 5.516694
25.945406 -0.010347 5.552445
24.964287 -0.008881 4.220754
23.185661 1.696394 5.502031
23.241577 0.001105 3.887793
21.232574 0.005077 3.739849
21.914700 0.003485 5.457411
19.910198 -0.003678 5.369970
17.927109 4.995617 5.307714
19.924955 4.995343 5.389739
22.746346 0.002571 2.176949
25.004953 -0.014186 2.440087
24.045624 -0.011040 0.525852
26.040739 -0.012580 0.561914
26.046310 4.989963 0.581374
25.680208 2.218018 4.049641
28.663595 4.978823 2.261845
28.029387 4.986390 0.592356
25.955219 4.970919 5.585423
12.053670 4.990380 0.150001
12.945846 3.106721 5.161857
13.944166 5.000185 5.190524
21.925341 4.991033 5.472179
28.717915 -0.022873 3.890064
29.306257 4.976002 3.937155
29.956675 4.956363 5.613316
31.289103 4.975977 3.964792
31.959272 -0.041973 5.617437
33.952045 -0.026786 5.653781
35.941330 4.969292 5.698009
32.636349 4.988429 2.312736
20.751480 1.687263 0.405393
20.742966 0.007366 2.022304
24.067348 5.005925 0.546364
27.961071 4.959249 5.602435
40.031879 5.016183 0.750117
3.172232 1.458558 5.004222
0.000000 3.103853 1.750106
0.000000 5.000000 1.666667
0.000000 3.333333 0.000000
2.001796 4.995287 -0.003825
0.000000 5.000000 0.000000
0.000000 5.000000 3.333333
0.000000 0.000000 3.333333
1.694003 2.467980 4.999884
3.034461 -0.004396 3.382044
1.999461 -0.006188 4.996313
0.000000 2.403264 3.370902
0.000000 1.666667 5.000000
0.000000 3.333333 5.000000
0.000000 0.000000 5.000000
27.960785 -0.028000 5.574873
29.961107 -0.043733 5.590181
36.041557 0.006001 0.675177
39.970592 -0.002144 5.723408
8.019846 0.013479 0.042144
1.995000 4.997277 4.998295
3.170831 1.457458 0.000716
4.013301 0.013589 0.004992
22.061371 0.008114 0.457926
0.000000 5.000000 5.000000
6.019584 0.014007 0.026069

CELLS 734 3670
4 0 1 2 3
4 0 4 2 5
4 0 3 2 6
4 4 6 0 2
4 4 6 7 0
4 8 9 10 11
4 12 13 14 15
4 16 17 14 18
4 19 20 18 21
4 20 22 21 23
4 24 25 26 23
4 25 27 26 23
4 26 28 29 30
4 28 29 31 32
4 33 34 32 31
4 31 33 35 32
4 31 33 36 35
4 33 37 36 35
4 38 39 40 31
4 41 42 43 38
4 44 42 45 38
4 44 42 38 43
4 46 38 42 41
4 46 47 40 48
4 49 50 51 52
4 53 54 51 55
4 56 54 55 57
4 56 58 59 57
4 60 59 61 62
4 63 61 64 65
4 66 67 68 69
4 67 70 71 72
4 73 74 75 76
4 74 77 75 76
4 77 78 79 80
4 79 81 75 80
4 77 78 80 82
4 77 83 76 84
4 83 85 76 84
4 85 86 74 84
4 74 86 87 84
4 88 89 86 90
4 91 89 88 90
4 86 88 90 92
4 90 86 92 74
4 86 89 74 90
4 93 94 95 74
4 70 74 72 93
4 70 73 71 72
4 74 96 73 72
4 66 97 93 72
4 96 97 72 93
4 96 98 97 93
4 85 96 74 99
4 96 98 93 99
4 98 89 100 93
4 101 102 100 103
4 104 105 101 106
4 107 58 57 60
4 58 107 57 56
4 53 108 109 55
4 56 110 109 54
4 53 111 109 108
4 112 53 109 52
4 111 112 113 53
4 112 111 113 114
4 115 116 114 117
4 40 28 115 117
4 45 117 118 28
4 119 28 25 44
4 120 44 121 122
4 123 121 124 125
4 125 123 126 124
4 127 128 21 124
4 16 129 128 21
4 16 18 14 130
4 16 17 18 19
4 131 17 132 18
4 16 19 18 21
4 133 16 19 134
4 135 134 133 136
4 135 137 136 138
4 137 134 139 140
4 141 142 143 144
4 145 146 147 7
4 142 148 147 146
4 7 146 147 149
4 10 7 9 146
4 145 150 7 151
4 152 151 150 153
4 16 128 154 124
4 124 21 121 133
4 25 28 30 44
4 28 38 45 40
4 45 47 40 42
4 155 45 156 47
4 157 156 47 155
4 155 45 40 117
4 45 42 158 159
4 44 42 43 158
4 119 45 158 159
4 120 44 158 119
4 25 127 21 121
4 25 27 160 30
4 127 25 160 30
4 25 127 121 30
4 44 25 121 30
4 28 30 44 29
4 119 28 44 45
4 119 28 118 25
4 28 24 26 161
4 26 32 29 28
4 28 31 29 38
4 46 38 41 39
4 46 38 39 40
4 28 117 40 45
4 118 28 117 161
4 162 24 118 161
4 118 119 163 164
4 136 119 164 163
4 25 133 21 163
4 128 16 21 124
4 165 166 153 154
4 166 167 168 169
4 167 168 169 170
4 171 168 172 166
4 124 173 126 154
4 123 121 133 124
4 120 125 122 121
4 122 158 44 43
4 47 46 40 42
4 52 50 174 48
4 175 50 174 54
4 176 175 177 178
4 179 60 180 181
4 64 69 63 65
4 68 72 67 66
4 70 73 182 71
4 74 79 183 75
4 184 78 185 79
4 79 184 186 187
4 186 184 188 187
4 184 189 190 191
4 184 78 79 186
4 78 189 184 191
4 189 184 190 188
4 184 78 191 192
4 184 78 192 185
4 192 78 80 185
4 193 80 194 185
4 195 81 196 194
4 81 79 196 194
4 197 187 196 198
4 187 79 185 196
4 79 184 187 185
4 197 199 187 198
4 199 197 187 200
4 199 200 187 186
4 78 201 79 186
4 189 201 87 78
4 202 201 79 74
4 201 74 92 87
4 201 202 92 74
4 201 202 79 186
4 202 203 74 79
4 202 198 203 79
4 204 202 199 203
4 202 203 205 74
4 202 204 205 203
4 182 203 74 205
4 74 203 183 79
4 79 203 183 198
4 79 81 198 183
4 81 79 198 196
4 187 79 196 198
4 202 198 79 186
4 202 204 94 205
4 94 95 205 206
4 207 208 209 210
4 208 207 211 210
4 104 103 211 65
4 104 60 212 213
4 214 215 216 217
4 218 219 220 221
4 222 174 220 221
4 46 39 222 174
4 52 46 40 48
4 40 49 52 48
4 53 49 52 113
4 40 49 155 113
4 155 45 47 40
4 157 47 223 155
4 49 223 224 48
4 52 50 51 54
4 175 54 57 178
4 218 175 54 57
4 225 219 54 57
4 218 175 57 177
4 57 217 219 218
4 219 225 226 57
4 225 227 226 57
4 59 110 57 227
4 59 60 61 228
4 61 60 213 228
4 64 61 213 228
4 63 61 213 64
4 61 104 211 65
4 180 60 104 62
4 58 229 62 180
4 58 60 180 62
4 60 61 104 62
4 60 226 230 212
4 226 60 213 212
4 60 104 212 230
4 179 60 230 104
4 104 211 231 62
4 180 229 62 232
4 180 232 62 231
4 179 60 104 180
4 233 181 105 179
4 181 105 179 230
4 105 214 106 230
4 105 214 230 177
4 215 214 218 217
4 215 217 218 219
4 218 215 219 221
4 218 175 174 54
4 39 52 220 174
4 39 46 52 174
4 115 52 112 35
4 28 115 117 161
4 162 118 116 161
4 24 162 118 163
4 20 19 234 163
4 25 133 163 119
4 120 119 158 235
4 236 119 235 159
4 235 119 158 159
4 119 235 133 136
4 138 235 236 164
4 45 47 42 159
4 46 38 40 42
4 49 50 52 48
4 237 175 176 178
4 181 233 177 176
4 180 179 231 104
4 207 103 65 211
4 207 103 68 65
4 65 66 103 68
4 103 66 97 93
4 66 103 97 63
4 213 104 63 238
4 238 97 103 63
4 104 102 103 238
4 104 106 212 230
4 214 212 106 230
4 214 212 216 106
4 214 212 217 216
4 214 212 230 217
4 226 217 230 212
4 226 60 230 57
4 181 60 57 230
4 179 105 104 230
4 179 105 101 104
4 104 239 103 101
4 239 101 240 100
4 91 241 240 100
4 241 239 240 100
4 239 241 103 100
4 103 210 93 241
4 103 207 93 210
4 210 103 231 239
4 103 239 104 231
4 103 104 63 65
4 65 66 63 103
4 65 66 68 69
4 68 72 66 93
4 96 98 242 97
4 85 96 99 243
4 85 86 99 74
4 86 89 99 74
4 88 86 244 92
4 74 86 92 87
4 201 244 87 92
4 244 86 87 92
4 90 74 92 94
4 94 95 206 245
4 95 209 206 245
4 245 207 95 209
4 208 232 231 211
4 180 104 231 62
4 181 60 107 57
4 54 175 51 178
4 50 52 174 54
4 246 36 52 247
4 246 36 37 35
4 52 31 36 35
4 31 39 52 36
4 39 46 222 41
4 39 222 174 220
4 174 218 220 221
4 218 219 54 220
4 225 219 220 54
4 56 110 54 57
4 110 56 59 57
4 60 59 226 228
4 60 226 213 228
4 57 217 230 226
4 214 217 230 218
4 218 57 230 177
4 181 105 230 177
4 179 60 181 230
4 58 107 180 60
4 229 107 58 248
4 229 107 180 58
4 60 58 59 62
4 58 107 56 248
4 108 56 109 55
4 108 56 55 248
4 107 56 55 57
4 107 181 57 178
4 57 181 177 178
4 181 176 177 178
4 233 181 177 105
4 249 239 101 240
4 91 89 241 100
4 89 91 241 90
4 210 245 93 241
4 245 241 90 93
4 93 94 90 245
4 74 202 92 94
4 205 204 94 206
4 202 198 199 203
4 202 198 186 199
4 199 197 200 250
4 199 186 187 198
4 200 186 188 187
4 184 189 186 188
4 201 189 87 244
4 189 201 78 186
4 201 78 79 87
4 189 78 184 186
4 186 79 187 198
4 74 201 79 87
4 74 79 84 87
4 79 78 84 87
4 77 78 84 79
4 74 77 84 79
4 74 85 84 76
4 83 243 76 85
4 85 96 243 76
4 73 96 74 76
4 96 93 74 99
4 89 93 99 74
4 93 94 74 90
4 93 94 245 95
4 207 95 68 93
4 95 70 68 93
4 95 70 74 205
4 74 70 182 205
4 94 95 74 205
4 241 89 90 93
4 104 179 231 239
4 181 60 180 107
4 107 57 55 178
4 57 54 55 178
4 53 49 51 52
4 40 49 113 52
4 155 47 223 48
4 45 47 159 156
4 119 156 45 159
4 120 44 119 121
4 16 173 124 154
4 166 167 169 145
4 145 7 147 251
4 9 7 252 149
4 253 254 252 255
4 256 253 255 254
4 6 9 252 255
4 253 257 149 252
4 7 258 259 260
4 260 261 251 170
4 169 260 251 170
4 169 251 167 170
4 166 167 145 171
4 16 22 18 130
4 25 24 20 23
4 24 25 118 28
4 119 156 118 45
4 119 28 45 118
4 119 45 44 158
4 44 38 28 29
4 25 28 26 30
4 25 24 26 28
4 24 20 234 163
4 162 24 234 163
4 163 119 118 25
4 235 135 133 136
4 135 134 140 133
4 145 141 153 144
4 145 260 169 151
4 0 258 4 5
4 259 258 262 263
4 264 259 262 263
4 258 7 262 0
4 260 258 259 261
4 258 261 263 259
4 261 258 263 265
4 261 260 251 259
4 167 251 169 145
4 145 260 251 169
4 166 167 171 168
4 16 171 153 140
4 137 135 136 134
4 138 135 235 136
4 235 138 136 164
4 236 119 156 164
4 157 156 159 47
4 155 47 48 40
4 40 49 48 155
4 46 52 174 48
4 247 225 220 54
4 110 225 57 227
4 60 59 57 226
4 104 61 211 62
4 232 211 62 231
4 103 104 211 231
4 239 210 103 241
4 241 93 103 100
4 68 72 93 70
4 103 207 68 93
4 207 103 211 210
4 210 208 231 211
4 103 210 231 211
4 245 207 210 93
4 245 207 209 210
4 245 207 93 95
4 70 95 74 93
4 70 73 74 182
4 182 203 183 74
4 202 74 205 94
4 93 89 90 74
4 89 241 100 93
4 93 98 103 100
4 101 104 102 103
4 104 101 102 106
4 106 238 104 212
4 266 216 212 106
4 106 238 212 266
4 106 238 102 104
4 267 266 238 102
4 97 102 267 238
4 106 238 266 102
4 97 102 238 103
4 97 102 103 98
4 97 102 98 267
4 97 98 242 267
4 96 98 99 242
4 89 98 99 93
4 239 101 100 103
4 104 179 239 101
4 179 249 239 101
4 105 179 101 249
4 233 105 249 179
4 177 181 57 230
4 175 57 177 178
4 175 237 51 178
4 55 54 51 178
4 112 111 109 53
4 112 53 52 113
4 117 115 113 114
4 116 118 117 161
4 115 116 117 161
4 28 115 161 32
4 29 32 26 34
4 26 30 29 27
4 34 26 29 27
4 29 34 31 32
4 31 115 32 35
4 31 115 28 32
4 246 112 52 35
4 246 247 52 54
4 247 110 225 54
4 59 227 57 226
4 213 104 238 212
4 104 103 63 238
4 97 98 103 93
4 70 73 72 74
4 71 182 268 73
4 182 75 268 73
4 182 75 183 268
4 183 81 268 75
4 182 75 74 183
4 79 81 183 75
4 79 81 80 194
4 78 192 80 82
4 192 193 80 82
4 269 193 192 82
4 193 192 80 185
4 80 79 194 185
4 77 74 75 79
4 85 96 76 74
4 96 243 242 99
4 98 102 103 100
4 104 105 106 230
4 214 218 230 177
4 50 175 51 54
4 49 155 223 48
4 157 156 236 159
4 236 119 159 156
4 235 119 164 136
4 236 119 164 235
4 133 235 120 123
4 120 235 133 119
4 135 123 235 133
4 124 173 123 126
4 173 172 126 154
4 166 171 154 172
4 172 171 154 173
4 171 16 154 173
4 171 166 154 153
4 16 171 154 153
4 124 173 16 133
4 124 173 133 123
4 25 133 119 121
4 19 16 133 21
4 163 19 133 21
4 134 19 133 136
4 133 119 136 163
4 133 19 163 136
4 132 20 18 19
4 20 132 234 19
4 20 19 163 21
4 22 20 21 18
4 16 22 21 18
4 128 129 127 21
4 160 129 21 127
4 160 21 25 127
4 25 20 21 23
4 25 27 23 160
4 25 27 30 26
4 23 22 21 160
4 16 129 21 22
4 128 130 165 270
4 128 130 270 129
4 128 130 16 165
4 16 165 153 154
4 17 16 14 153
4 131 17 18 14
4 17 141 153 15
4 12 10 15 153
4 15 17 14 153
4 153 16 14 130
4 16 129 22 130
4 128 130 129 16
4 16 128 165 154
4 151 166 153 165
4 260 145 7 151
4 9 6 252 7
4 7 262 252 149
4 260 259 7 251
4 7 259 147 251
4 264 259 271 149
4 259 7 147 149
4 146 148 147 149
4 271 259 147 149
4 148 271 147 149
4 146 142 143 141
4 144 141 140 139
4 141 134 140 139
4 143 141 144 139
4 142 145 141 146
4 145 142 141 144
4 148 142 143 146
4 145 7 10 146
4 145 150 151 153
4 151 272 150 7
4 151 272 273 150
4 151 272 4 273
4 4 272 2 273
4 151 272 7 4
4 4 260 7 151
4 166 145 151 153
4 166 145 169 151
4 171 166 153 145
4 133 16 140 173
4 124 16 21 133
4 25 21 160 23
4 21 129 160 22
4 121 21 124 127
4 121 120 133 119
4 123 121 125 120
4 123 121 120 133
4 25 133 121 21
4 25 20 163 21
4 118 24 28 161
4 26 28 161 32
4 40 115 28 31
4 115 52 113 112
4 246 112 109 52
4 246 52 109 54
4 56 54 109 55
4 56 107 55 248
4 58 60 59 57
4 63 61 65 104
4 68 72 70 67
4 182 75 73 74
4 77 79 75 80
4 196 79 185 194
4 79 78 185 80
4 77 78 82 84
4 83 77 82 84
4 77 74 84 76
4 96 74 93 72
4 103 66 93 68
4 65 66 69 63
4 63 61 104 213
4 61 60 104 213
4 59 227 226 228
4 274 110 227 225
4 246 36 247 37
4 246 36 35 52
4 52 115 40 31
4 28 31 38 40
4 44 42 158 45
4 120 44 122 158
4 135 133 140 173
4 171 16 173 140
4 171 144 153 140
4 141 144 140 153
4 10 141 15 153
4 10 12 15 13
4 10 8 12 13
4 8 10 12 11
4 8 9 11 255
4 9 253 149 252
4 257 262 149 252
4 262 259 149 7
4 258 7 4 260
4 259 258 7 262
4 262 0 7 252
4 0 6 7 252
4 254 6 252 255
4 0 3 6 252
4 6 3 254 252
4 272 6 11 7
4 4 6 272 7
4 4 6 2 272
4 9 6 11 255
4 9 253 252 255
4 262 264 257 149
4 257 264 275 271
4 259 264 262 149
4 257 264 271 149
4 9 146 7 149
4 10 7 11 9
4 7 12 10 11
4 145 150 153 12
4 12 145 10 153
4 145 146 10 141
4 145 142 147 146
4 171 145 153 144
4 171 142 145 144
4 142 171 145 167
4 142 145 147 167
4 167 145 147 251
4 145 260 7 251
4 145 150 12 7
4 12 145 7 10
4 12 152 153 14
4 152 153 14 130
4 152 151 153 165
4 165 152 276 270
4 152 151 165 276
4 165 152 270 130
4 152 151 276 150
4 276 150 151 273
4 272 7 11 150
4 7 12 11 150
4 153 150 152 12
4 165 16 153 130
4 165 152 130 153
4 15 12 153 14
4 13 131 14 15
4 17 131 15 14
4 17 132 18 19
4 25 24 163 20
4 25 24 118 163
4 119 156 164 118
4 118 117 45 156
4 155 45 117 156
4 113 40 117 155
4 50 49 224 48
4 49 50 224 51
4 50 237 224 51
4 237 50 175 51
4 52 54 220 174
4 52 247 220 54
4 39 247 220 52
4 39 247 52 36
4 115 52 35 31
4 40 115 52 113
4 40 115 113 117
4 115 112 113 114
4 53 52 51 54
4 54 53 109 55
4 52 53 109 54
4 110 246 109 54
4 247 110 54 246
4 247 110 274 225
4 246 274 37 247
4 247 110 246 274
4 110 225 54 57
4 57 217 226 219
4 57 217 218 230
4 219 218 54 57
4 218 54 174 220
4 46 39 52 40
4 39 31 52 40
4 38 42 45 40
4 28 38 44 45
4 121 25 44 119
4 123 135 173 133
4 134 153 140 16
4 134 16 140 133
4 137 135 134 140
4 134 153 141 140
4 134 153 16 17
4 16 17 19 134
4 134 153 17 141
4 153 145 10 141
4 6 9 11 7
4 258 7 0 4
4 1 0 2 5

CELL_TYPES 734
10
10
10
10
10
10
10
10
10
10
10
10
10
10
10
10
10
10
10
10
10
10
10
10
10
10
10
10
10
10
10
10
10
10
10
10
10
10
10
10
10
10
10
10
10
10
10
10
10
10
10
10
10
10
10
10
10
10
10
10
10
10
10
10
10
10
10
10
10
10
10
10
10
10
10
10
10
10
10
10
10
10
10
10
10
10
10
10
10
10
10
10
10
10
10
10
10
10
10
10
10
10
10
10
10
10
10
10
10
10
10
10
10
10
10
10
10
10
10
10
10
10
10
10
10
10
10
10
10
10
10
10
10
10
10
10
10
10
10
10
10
10
10
10
10
10
10
10
10
10
10
10
10
10
10
10
10
10
10
10
10
10
10
10
10
10
10
10
10
10
10
10
10
10
10
10
10
10
10
10
10
10
10
10
10
10
10
10
10
10
10
10
10
10
10
10
10
10
10
10
10
10
10
10
10
10
10
10
10
10
10
10
10
10
10
10
10
10
10
10
10
10
10
10
10
10
10
10
10
10
10
10
10
10
10
10
10
10
10
10
10
10
10
10
10
10
10
10
10
10
10
10
10
10
10
10
10
10
10
10
10
10
10
10
10
10
10
10
10
10
10
10
10
10
10
10
10
10
10
10
10
10
10
10
10
10
10
10
10
10
10
10
10
10
10
10
10
10
10
10
10
10
10
10
10
10
10
10
10
10
10
10
10
10
10
10
10
10
10
10
10
10
10
10
10
10
10
10
10
10
10
10
10
10
10
10
10
10
10
10
10
10
10
10
10
10
10
10
10
10
10
10
10
10
10
10
10
10
10
10
10
10
10
10
10
10
10
10
10
10
10
10
10
10
10
10
10
10
10
10
10
10
10
10
10
10
10
10
10
10
10
10
10
10
10
10
10
10
10
10
10
10
10
10
10
10
10
10
10
10
10
10
10
10
10
10
10
10
10
10
10
10
10
10
10
10
10
10
10
10
10
10
10
10
10
10
10
10
10
10
10
10
10
10
10
10
10
10
10
10
10
10
10
10
10
10
10
10
10
10
10
10
10
10
10
10
10
10
10
10
10
10
10
10
10
10
10
10
10
10
10
10
10
10
10
10
10
10
10
10
10
10
10
10
10
10
10
10
10
10
10
10
10
10
10
10
10
10
10
10
10
10
10
10
10
10
10
10
10
10
10
10
10
10
10
10
10
10
10
10
10
10
10
10
10
10
10
10
10
10
10
10
10
10
10
10
10
10
10
10
10
10
10
10
10
10
10
10
10
10
10
10
10
10
10
10
10
10
10
10
10
10
10
10
10
10
10
10
10
10
10
10
10
10
10
10
10
10
10
10
10
10
10
10
10
10
10
10
10
10
10
10
10
10
10
10
10
10
10
10
10
10
10
10
10
10
10
10
10
10
10
10
10
10
10
10
10
10
10
10
10
10
10
10
10
10
10
10
10
10
10
10
10
10
10
10
10
10
10
10
10
10
10
10
10
10
10
10
10
10
10
10
10
10
10
10
10
10
10
10
10
10
10
10
10
10
10
10
10
10
10
10
10
10
10
10
10
10
10
10
10
10
10
10
10
10
10
10
10
10
10
10
10
10
10
10
10
10
10
10
10
10
10
10
10
10
10
10
10
10
10
10
10
10
10
10
10
10
10
10
10
10
10
10

CELL_DATA 734
SCALARS potentialEnergy FLOAT 1
LOOKUP_TABLE default
37.066401
32.718731
56.348232
66.366879
62.585617
113.267448
60.833553
213.947052
132.098854
126.785881
95.639656
102.159981
72.611866
110.281792
169.864624
78.807373
83.323318
126.937248
85.421295
111.193237
76.750015
102.001785
94.972099
90.118507
260.041580
257.546310
236.825424
156.837509
31.079800
49.589951
48.647606
36.831091
104.162819
92.774269
147.257324
161.627014
87.416283
92.302956
75.605850
139.595856
64.080471
53.992195
107.068062
36.929403
37.960951
51.661369
16.832733
27.006296
26.057121
70.699966
92.224625
70.808056
114.672859
80.236595
69.233574
75.270798
86.512466
236.950409
144.050903
342.150909
152.781570
392.290405
88.757370
306.062958
66.205494
112.038147
332.818756
239.624329
149.554733
156.207626
124.625885
65.819126
42.056759
41.169739
107.156128
225.771225
55.669716
67.769905
97.525826
86.020012
96.951874
52.198334
96.968491
141.010742
317.439789
105.815353
285.755646
145.014099
169.281708
114.125717
49.617519
227.234695
84.337463
128.482407
35.313818
78.879761
76.508728
98.401779
99.662064
122.753189
55.783699
52.837452
71.139812
60.116192
81.291283
82.592972
142.231140
97.545998
173.580124
121.251862
74.104881
288.786713
75.619743
86.822563
155.792343
122.438721
142.760925
61.842106
44.447079
68.235939
106.369164
51.129082
59.938480
93.913147
116.512245
170.600815
97.984520
137.697945
70.041767
170.279114
98.561050
209.242950
130.889977
148.890747
108.488464
56.911049
34.251858
27.887655
227.716293
127.584572
155.922379
43.137829
169.059204
243.500595
272.425812
167.893097
109.917709
60.150078
119.870987
52.671925
149.993668
146.594131
75.186104
98.434372
93.409584
148.095169
64.574955
77.637260
273.381531
128.553108
136.102882
133.939667
121.687035
376.609253
152.791260
142.690170
110.331947
48.555534
42.308838
52.644501
75.050171
84.658104
57.506260
62.458866
95.784676
159.215149
26.290606
115.616806
47.818668
33.777811
83.025436
113.286980
242.211594
45.143021
159.110977
112.408691
110.831993
130.699203
128.703362
135.488945
58.247623
97.253662
71.514820
394.440369
184.595062
328.919312
150.680511
190.363815
107.100243
172.533218
143.254028
327.074127
87.247345
59.515511
38.765404
52.716118
115.588463
278.190857
73.316700
133.399590
58.964165
104.521095
138.753708
102.136017
294.506256
198.002838
244.447311
110.151604
79.469185
53.043877
87.072380
282.602631
127.152832
111.434341
59.359776
93.581902
172.100891
376.021698
296.752899
131.168793
192.956909
89.958313
222.237701
240.481155
153.589798
60.841568
64.418854
38.483835
131.305801
43.729366
67.978458
164.605484
248.651917
211.702576
112.124680
200.899658
71.243690
27.562683
33.439079
350.978851
176.832642
160.387711
90.921127
132.668373
165.202393
264.565262
198.642929
136.780037
224.632339
235.400375
81.886688
209.754135
161.058365
330.039734
147.119324
49.383873
73.346180
37.857435
97.146187
19.037647
66.055874
37.183130
90.176704
186.793671
67.926659
57.088814
68.919361
73.287342
62.610645
69.309742
43.407635
103.303802
105.196617
24.906034
51.719635
26.016356
27.762398
53.219437
49.487118
52.225323
308.850372
182.914795
242.481049
287.907318
328.198120
110.942909
146.735489
83.178001
142.876526
152.467712
88.592659
179.570206
108.725220
204.013931
376.904633
81.379021
158.580170
170.165100
153.783569
183.726303
214.956955
179.356461
168.012619
197.790710
150.227982
71.118347
161.902634
193.613495
153.383347
118.844391
102.513802
121.712868
63.414196
193.422470
97.196762
32.904022
57.752476
36.999228
67.273746
29.260767
85.565430
94.704308
213.550354
215.984756
85.207253
217.672211
87.982567
56.371174
87.539116
171.406479
152.653244
115.096558
151.850616
96.767700
97.067863
230.825073
122.691162
192.238846
139.990540
132.361549
52.496681
85.277176
104.575027
97.668648
37.357309
21.672484
85.900734
50.976234
133.303795
65.229351
40.573153
101.146614
275.334869
149.034012
115.041458
130.511185
263.361206
123.568344
74.262352
115.093071
72.996510
104.194931
147.681351
146.371643
129.511879
38.265135
42.054672
36.987700
65.081791
16.743664
111.467186
241.977417
129.684250
114.361305
277.804993
196.457886
131.457047
182.751785
132.019264
174.005035
85.242630
158.834457
74.430550
122.516022
100.548409
89.157021
124.387573
160.735153
239.186050
123.315895
112.164345
34.711647
279.869171
195.841034
10.855958
125.642174
177.831085
18.769164
114.907135
260.584854
220.801117
176.285690
88.674156
88.132767
72.590115
112.731323
58.956688
68.824802
141.974136
136.784515
219.784760
159.995285
173.331573
102.667404
110.222282
62.946468
195.195480
57.889030
58.024906
52.702187
46.257648
30.121618
37.084869
39.587246
154.073181
53.930740
58.286945
26.266651
54.289494
85.894608
64.494240
99.178680
77.321556
77.772598
103.166885
125.031013
221.578171
230.316162
112.113731
194.381378
121.589371
77.693390
101.144257
160.337143
142.071381
90.853195
51.258743
71.823540
44.312969
117.031296
239.248138
94.920479
142.098770
51.866676
160.943359
291.290588
117.124611
186.835983
99.092865
240.528061
146.165680
139.714935
163.046616
116.508598
267.646454
133.395683
220.552444
161.910706
104.838165
157.775040
305.141144
381.291412
187.399307
126.730865
201.698105
106.063057
99.454407
33.718596
40.939123
108.384666
47.385426
99.181816
136.107193
147.722397
174.464294
169.081467
78.890877
107.223961
84.627258
44.979988
158.339478
81.307327
78.875465
102.612251
132.052849
169.196289
181.292801
84.842293
53.464050
52.663837
37.792505
38.794014
39.580303
133.083496
67.658096
36.433838
37.634134
50.877892
46.992508
105.897926
98.577744
65.531830
119.332031
80.398041
171.101898
57.940662
128.650208
142.497345
81.809639
41.808657
83.850868
101.240318
189.019760
161.420898
106.251556
97.840187
116.291687
74.173752
99.312622
71.978222
70.296474
176.851547
160.420258
84.379990
130.851280
106.308914
67.797554
95.819748
89.738518
121.021904
92.026237
112.434753
92.005791
221.127228
105.011024
46.259083
64.877319
161.631989
55.918354
49.971561
134.368019
121.815079
60.565472
275.446503
79.551514
195.521072
195.522614
109.738434
86.412659
95.049988
79.987961
275.780273
144.672043
109.013939
132.550537
81.669479
250.822266
107.129395
156.526459
107.729820
120.589943
276.702972
71.945244
145.350754
153.207260
142.998596
54.510300
70.438396
136.778831
54.305351
125.983780
69.100742
53.211250
119.122360
140.119614
156.548691
222.398865
162.004105
247.263977
212.497910
346.671844
575.401672
23.261699
127.383598
126.319275
54.803802
126.370163
109.223213
105.651680
178.251022
65.480595
52.649555
129.992455
84.523979
54.768993
42.633514
141.428375
73.731499
99.923653
197.806213
112.911133
320.064850
224.989914
72.556019
238.792572
43.005936
62.345821
194.278107
90.149979
179.569656
60.228577
41.952698
103.605415
66.413990
164.658112
139.707047
18.924982
41.623539
35.754637
34.158419
10.621728
95.628883
63.760838
199.581451
192.738785
85.854248
62.948250
207.295395
105.824959
48.676682
19.101703
180.779938
35.422747
80.217255
125.787064
73.510921
167.668365
98.358727
122.462067
175.942871
485.270477
98.251717
125.676003
185.269684
128.326759
222.742111
186.878906
145.338669
156.698578
192.121841
87.409218
35.631834
22.726194
57.528492
82.446968
55.345901
68.216797
136.646416
106.512543
89.108376
134.099846
127.928352
220.067963
158.274506
76.651711
40.504169
155.812241
162.277039
97.498413
121.639702
126.330948
129.957512
91.812523
127.429855
121.004326
85.197083
389.578888
296.877411
291.075409
233.263840
178.324875
248.560715
370.725311
106.463760
275.591919
476.517517
487.678253
239.501587
232.670715
74.385139
101.733376
90.917763
184.131744
109.815636
237.887466
127.485336
192.382217
131.758545
129.622574
89.719986
135.452415
124.253120
27.511946
151.432800
140.286148
73.771191
143.397919
95.875992
39.552132
84.685478
82.191536
188.494629
64.660801
31.263985

