# vtk DataFile Version 3.1
Tetrahedral Mesh Visualization
ASCII
DATASET UNSTRUCTURED_GRID

POINTS 277 FLOAT
0.000000 1.378113 1.754166
0.000000 0.000000 0.000000
2.001946 0.004044 0.010968
0.000000 1.666667 0.000000
2.422296 0.001356 1.745651
0.000000 0.000000 1.666667
1.696979 2.468929 0.008348
2.997445 2.454308 2.340373
4.011150 4.990701 0.023763
3.076205 4.997216 1.656948
5.215004 5.000122 1.647430
3.500464 3.174028 0.026648
5.422068 3.299986 0.044520
6.018252 4.997114 0.054712
7.380306 3.323713 0.085862
6.973792 5.001362 1.398938
9.258564 2.183851 2.139058
8.693427 5.001194 1.720695
9.360383 3.335355 0.110820
10.658553 5.004919 1.782036
11.348406 3.338131 0.120386
11.120957 1.870940 1.678403
10.694418 1.667316 0.118790
12.682590 1.663365 0.128966
13.340352 3.333638 0.126809
12.976783 1.878795 1.623688
14.672779 1.663539 0.132170
14.009877 -0.010431 0.138709
15.471038 2.150549 1.814915
15.336337 0.003204 1.789089
13.341066 0.000775 1.804769
17.290562 0.012339 1.717907
16.669689 1.676383 0.114127
18.005577 0.015899 0.111561
16.000996 0.004404 0.121980
18.689939 1.670966 0.116054
19.013767 0.005787 1.435617
20.031374 0.006827 0.139095
16.726643 0.003759 3.417945
18.985527 -0.002687 3.224858
17.699806 2.688154 3.066632
17.975006 -0.002461 5.120792
16.662004 1.665915 5.121467
15.990521 0.000158 5.126437
14.679454 0.002430 3.463505
15.766184 2.893109 3.478908
18.704988 1.695302 5.124199
17.288815 3.337914 5.126811
19.251926 3.385734 5.129880
19.313702 4.992653 3.458018
20.953100 3.673409 5.158667
21.311504 4.992173 3.503040
19.623976 2.484943 2.476951
20.671429 4.991200 1.820191
21.910788 2.506659 2.654309
22.672407 5.006138 1.873710
23.332584 3.402736 0.221882
23.969063 2.447245 2.528324
25.041500 3.700625 0.259182
25.040586 1.906038 0.254653
25.989975 2.508523 2.005159
27.295393 1.699747 0.296369
26.746349 3.398645 0.283364
29.283260 -0.000797 1.936935
28.043863 0.002726 0.305901
29.350264 1.672525 0.331292
31.006037 0.007802 1.671308
32.053581 0.011433 0.371322
31.355431 1.671641 0.366273
30.049032 0.001925 0.339010
33.321640 1.662814 0.402503
34.051426 0.005297 0.421666
32.696697 0.008899 1.998253
34.612167 0.008719 2.115655
34.982174 2.405087 2.987984
36.520515 0.006781 2.281358
35.116592 -0.000127 3.829117
36.800976 -0.000975 4.019984
38.230888 2.518429 5.519654
37.683537 2.165753 2.692092
38.298557 0.008219 3.048533
38.054493 0.014046 0.501208
37.933029 -0.002456 5.504436
35.939087 0.001726 5.464033
36.498737 1.745645 5.480617
34.869267 1.330539 5.439129
34.789265 3.127419 5.449998
36.695492 3.481225 5.491735
33.949532 4.993545 5.441813
32.635216 3.299086 5.406789
33.254894 5.000714 3.772228
31.945946 5.001407 5.390755
35.136242 4.999453 3.854526
32.199577 2.601762 2.822778
34.608597 5.006810 2.147300
32.683857 3.336102 0.406860
33.181801 -0.008183 3.709575
30.961853 -0.003660 3.459858
31.253456 1.647688 5.361835
33.184090 1.598659 5.401740
30.612694 3.323683 5.353972
28.605608 3.332127 5.308271
29.266270 1.663389 5.322585
30.011726 2.503330 2.818303
27.951021 2.495239 2.776568
26.605743 3.331554 5.278111
27.266108 1.662664 5.283195
24.669012 5.011027 1.915768
22.039995 5.004229 0.189181
21.375599 3.344062 0.169010
22.777288 1.704581 0.206172
20.031145 4.988461 0.143378
19.362886 3.330368 0.130553
18.662333 4.990620 1.786168
18.015701 4.996021 0.119216
17.346024 3.335689 0.111562
16.004438 4.996294 0.120933
16.659361 4.997711 1.785046
14.656301 5.006601 1.790512
13.687758 2.957536 3.397323
12.980746 1.310878 5.132489
12.664271 -0.004943 3.468528
13.991648 -0.007779 5.134014
11.255288 1.610942 5.120145
10.653869 0.003436 3.450917
11.978299 -0.005716 5.128593
9.972797 0.000767 5.105812
11.338334 0.002738 1.794438
9.319706 0.000952 1.781701
10.023685 0.000248 0.117866
8.711072 1.662195 0.104579
8.018682 4.995650 0.095890
10.011629 5.006274 0.120239
11.219483 2.643405 3.408289
9.241621 5.000989 3.418371
10.716264 3.305548 5.118878
11.301147 4.998129 3.454176
9.978291 4.992136 5.120178
11.983006 4.989150 5.127138
7.966365 4.999156 5.093201
8.709442 3.391081 5.103003
6.951423 4.999526 3.188995
5.334460 3.372797 5.050928
5.969704 5.010280 5.056212
7.000618 3.681615 5.077993
5.132687 2.372190 3.178929
4.614554 5.002938 3.320237
3.475963 3.195085 5.024203
3.982465 5.013822 5.020927
2.369321 5.003319 3.287285
4.859839 1.602631 0.032363
4.911940 0.002107 1.908606
6.748244 1.648135 0.072401
7.010726 2.560683 2.269480
8.643304 0.004586 3.436264
17.316307 4.999566 3.453968
15.315254 5.003746 3.459358
15.977445 4.998152 5.129995
14.693371 1.609457 5.133614
15.243151 3.303937 5.131571
12.017823 -0.007396 0.129300
15.340447 3.334340 0.124959
14.003426 4.997089 0.120680
12.657229 5.009821 1.790357
13.314924 4.995146 3.461436
7.252306 -0.001167 1.773322
6.656529 -0.006338 3.445655
4.891885 1.648047 5.042028
5.972735 -0.005365 5.058199
4.904822 -0.000998 3.697862
3.988071 -0.001895 5.027013
7.017967 1.886914 5.070913
7.971277 0.006794 5.087104
9.250372 1.695938 5.102092
20.957125 1.884766 5.156978
22.661791 3.379919 5.200950
23.948656 4.994772 5.234721
24.612097 3.336487 5.247613
23.310869 4.997060 3.552914
27.306688 5.000037 3.625362
26.670732 5.006273 1.950152
25.307327 4.999296 3.591824
35.204716 1.619498 0.445425
36.885189 1.465518 0.474496
39.962643 3.249251 4.169154
39.990746 1.637871 3.156696
38.294529 5.002935 3.050326
39.997505 3.257831 2.444009
39.969662 5.010386 3.880059
37.945808 5.000741 5.510224
39.954460 5.000605 5.535196
39.939117 3.337557 5.544394
39.936790 1.671527 5.564372
39.975075 0.010959 3.892793
40.015091 0.011708 2.225108
40.054798 0.014599 0.560436
40.045769 1.678458 0.562430
40.042976 3.348686 0.553183
38.350948 2.471043 0.513799
38.044575 5.008430 0.512294
39.996849 5.018097 2.218990
36.808506 5.000214 4.035670
36.519913 4.999675 2.299716
36.559052 3.185659 0.474989
36.044506 5.005620 0.469508
34.641571 3.315072 0.446257
34.047169 5.013206 0.443090
30.699314 3.336811 0.357264
30.044870 5.001938 0.349100
32.048771 5.001655 0.392022
30.667017 4.999692 2.027319
28.704451 3.341999 0.313695
26.695599 -0.003002 3.658354
27.274097 -0.007565 1.979463
25.259060 1.661253 5.260713
23.950134 -0.014364 5.235467
25.950682 -0.010059 5.267124
24.972181 -0.013017 3.930115
23.218321 1.684722 5.214063
23.254581 -0.006304 3.599509
21.245487 -0.002152 3.472770
21.950453 -0.010315 5.182290
19.956615 -0.011868 5.129226
17.971386 5.002396 5.122410
19.953718 5.001287 5.133023
22.746586 -0.003585 1.892347
25.004627 0.000948 2.139344
24.044720 0.008082 0.230327
26.035522 0.002995 0.278080
26.041283 5.021117 0.280429
25.672522 2.231349 3.755052
28.671837 4.997843 1.982497
28.041000 4.998463 0.305414
25.949137 4.999636 5.266383
12.006203 5.006681 0.122764
12.981585 3.100214 5.130046
13.977089 4.994356 5.130896
21.950272 4.988223 5.186930
28.706196 0.000586 3.617927
29.305584 5.002928 3.663510
29.946198 4.993372 5.345152
31.293842 5.001624 3.711066
31.942600 -0.008647 5.372393
33.939812 -0.008502 5.413574
35.946743 4.999990 5.478351
32.650497 5.002545 2.081985
20.722166 1.674206 0.149310
20.739340 0.000762 1.763173
24.036980 5.015229 0.236952
27.947178 4.997692 5.303329
40.024364 5.028763 0.548969
3.174449 1.466241 5.017796
0.000000 3.103853 1.750106
0.000000 5.000000 1.666667
0.000000 3.333333 0.000000
2.001889 4.999159 0.006440
0.000000 5.000000 0.000000
0.000000 5.000000 3.333333
0.000000 0.000000 3.333333
1.694126 2.468240 5.008751
3.035931 -0.004168 3.402858
1.998597 -0.010667 5.004405
0.000000 2.403264 3.370902
0.000000 1.666667 5.000000
0.000000 3.333333 5.000000
0.000000 0.000000 5.000000
27.945185 -0.006072 5.291376
29.944395 -0.002415 5.331152
36.049908 0.017223 0.447681
39.934467 0.010643 5.563177
8.028390 -0.003624 0.093632
1.996724 5.004033 5.007388
3.171165 1.455301 0.021954
4.010500 0.004728 0.026219
22.044933 0.005480 0.186034
0.000000 5.000000 5.000000
6.026538 0.001395 0.052343

CELLS 734 3670
4 0 1 2 3
4 0 4 2 5
4 0 3 2 6
4 4 6 0 2
4 4 6 7 0
4 8 9 10 11
4 12 13 14 15
4 16 17 14 18
4 19 20 18 21
4 20 22 21 23
4 24 25 26 23
4 25 27 26 23
4 26 28 29 30
4 28 29 31 32
4 33 34 32 31
4 31 33 35 32
4 31 33 36 35
4 33 37 36 35
4 38 39 40 31
4 41 42 43 38
4 44 42 45 38
4 44 42 38 43
4 46 38 42 41
4 46 47 40 48
4 49 50 51 52
4 53 54 51 55
4 56 54 55 57
4 56 58 59 57
4 60 59 61 62
4 63 61 64 65
4 66 67 68 69
4 67 70 71 72
4 73 74 75 76
4 74 77 75 76
4 77 78 79 80
4 79 81 75 80
4 77 78 80 82
4 77 83 76 84
4 83 85 76 84
4 85 86 74 84
4 74 86 87 84
4 88 89 86 90
4 91 89 88 90
4 86 88 90 92
4 90 86 92 74
4 86 89 74 90
4 93 94 95 74
4 70 74 72 93
4 70 73 71 72
4 74 96 73 72
4 66 97 93 72
4 96 97 72 93
4 96 98 97 93
4 85 96 74 99
4 96 98 93 99
4 98 89 100 93
4 101 102 100 103
4 104 105 101 106
4 107 58 57 60
4 58 107 57 56
4 53 108 109 55
4 56 110 109 54
4 53 111 109 108
4 112 53 109 52
4 111 112 113 53
4 112 111 113 114
4 115 116 114 117
4 40 28 115 117
4 45 117 118 28
4 119 28 25 44
4 120 44 121 122
4 123 121 124 125
4 125 123 126 124
4 127 128 21 124
4 16 129 128 21
4 16 18 14 130
4 16 17 18 19
4 131 17 132 18
4 16 19 18 21
4 133 16 19 134
4 135 134 133 136
4 135 137 136 138
4 137 134 139 140
4 141 142 143 144
4 145 146 147 7
4 142 148 147 146
4 7 146 147 149
4 10 7 9 146
4 145 150 7 151
4 152 151 150 153
4 16 128 154 124
4 124 21 121 133
4 25 28 30 44
4 28 38 45 40
4 45 47 40 42
4 155 45 156 47
4 157 156 47 155
4 155 45 40 117
4 45 42 158 159
4 44 42 43 158
4 119 45 158 159
4 120 44 158 119
4 25 127 21 121
4 25 27 160 30
4 127 25 160 30
4 25 127 121 30
4 44 25 121 30
4 28 30 44 29
4 119 28 44 45
4 119 28 118 25
4 28 24 26 161
4 26 32 29 28
4 28 31 29 38
4 46 38 41 39
4 46 38 39 40
4 28 117 40 45
4 118 28 117 161
4 162 24 118 161
4 118 119 163 164
4 136 119 164 163
4 25 133 21 163
4 128 16 21 124
4 165 166 153 154
4 166 167 168 169
4 167 168 169 170
4 171 168 172 166
4 124 173 126 154
4 123 121 133 124
4 120 125 122 121
4 122 158 44 43
4 47 46 40 42
4 52 50 174 48
4 175 50 174 54
4 176 175 177 178
4 179 60 180 181
4 64 69 63 65
4 68 72 67 66
4 70 73 182 71
4 74 79 183 75
4 184 78 185 79
4 79 184 186 187
4 186 184 188 187
4 184 189 190 191
4 184 78 79 186
4 78 189 184 191
4 189 184 190 188
4 184 78 191 192
4 184 78 192 185
4 192 78 80 185
4 193 80 194 185
4 195 81 196 194
4 81 79 196 194
4 197 187 196 198
4 187 79 185 196
4 79 184 187 185
4 197 199 187 198
4 199 197 187 200
4 199 200 187 186
4 78 201 79 186
4 189 201 87 78
4 202 201 79 74
4 201 74 92 87
4 201 202 92 74
4 201 202 79 186
4 202 203 74 79
4 202 198 203 79
4 204 202 199 203
4 202 203 205 74
4 202 204 205 203
4 182 203 74 205
4 74 203 183 79
4 79 203 183 198
4 79 81 198 183
4 81 79 198 196
4 187 79 196 198
4 202 198 79 186
4 202 204 94 205
4 94 95 205 206
4 207 208 209 210
4 208 207 211 210
4 104 103 211 65
4 104 60 212 213
4 214 215 216 217
4 218 219 220 221
4 222 174 220 221
4 46 39 222 174
4 52 46 40 48
4 40 49 52 48
4 53 49 52 113
4 40 49 155 113
4 155 45 47 40
4 157 47 223 155
4 49 223 224 48
4 52 50 51 54
4 175 54 57 178
4 218 175 54 57
4 225 219 54 57
4 218 175 57 177
4 57 217 219 218
4 219 225 226 57
4 225 227 226 57
4 59 110 57 227
4 59 60 61 228
4 61 60 213 228
4 64 61 213 228
4 63 61 213 64
4 61 104 211 65
4 180 60 104 62
4 58 229 62 180
4 58 60 180 62
4 60 61 104 62
4 60 226 230 212
4 226 60 213 212
4 60 104 212 230
4 179 60 230 104
4 104 211 231 62
4 180 229 62 232
4 180 232 62 231
4 179 60 104 180
4 233 181 105 179
4 181 105 179 230
4 105 214 106 230
4 105 214 230 177
4 215 214 218 217
4 215 217 218 219
4 218 215 219 221
4 218 175 174 54
4 39 52 220 174
4 39 46 52 174
4 115 52 112 35
4 28 115 117 161
4 162 118 116 161
4 24 162 118 163
4 20 19 234 163
4 25 133 163 119
4 120 119 158 235
4 236 119 235 159
4 235 119 158 159
4 119 235 133 136
4 138 235 236 164
4 45 47 42 159
4 46 38 40 42
4 49 50 52 48
4 237 175 176 178
4 181 233 177 176
4 180 179 231 104
4 207 103 65 211
4 207 103 68 65
4 65 66 103 68
4 103 66 97 93
4 66 103 97 63
4 213 104 63 238
4 238 97 103 63
4 104 102 103 238
4 104 106 212 230
4 214 212 106 230
4 214 212 216 106
4 214 212 217 216
4 214 212 230 217
4 226 217 230 212
4 226 60 230 57
4 181 60 57 230
4 179 105 104 230
4 179 105 101 104
4 104 239 103 101
4 239 101 240 100
4 91 241 240 100
4 241 239 240 100
4 239 241 103 100
4 103 210 93 241
4 103 207 93 210
4 210 103 231 239
4 103 239 104 231
4 103 104 63 65
4 65 66 63 103
4 65 66 68 69
4 68 72 66 93
4 96 98 242 97
4 85 96 99 243
4 85 86 99 74
4 86 89 99 74
4 88 86 244 92
4 74 86 92 87
4 201 244 87 92
4 244 86 87 92
4 90 74 92 94
4 94 95 206 245
4 95 209 206 245
4 245 207 95 209
4 208 232 231 211
4 180 104 231 62
4 181 60 107 57
4 54 175 51 178
4 50 52 174 54
4 246 36 52 247
4 246 36 37 35
4 52 31 36 35
4 31 39 52 36
4 39 46 222 41
4 39 222 174 220
4 174 218 220 221
4 218 219 54 220
4 225 219 220 54
4 56 110 54 57
4 110 56 59 57
4 60 59 226 228
4 60 226 213 228
4 57 217 230 226
4 214 217 230 218
4 218 57 230 177
4 181 105 230 177
4 179 60 181 230
4 58 107 180 60
4 229 107 58 248
4 229 107 180 58
4 60 58 59 62
4 58 107 56 248
4 108 56 109 55
4 108 56 55 248
4 107 56 55 57
4 107 181 57 178
4 57 181 177 178
4 181 176 177 178
4 233 181 177 105
4 249 239 101 240
4 91 89 241 100
4 89 91 241 90
4 210 245 93 241
4 245 241 90 93
4 93 94 90 245
4 74 202 92 94
4 205 204 94 206
4 202 198 199 203
4 202 198 186 199
4 199 197 200 250
4 199 186 187 198
4 200 186 188 187
4 184 189 186 188
4 201 189 87 244
4 189 201 78 186
4 201 78 79 87
4 189 78 184 186
4 186 79 187 198
4 74 201 79 87
4 74 79 84 87
4 79 78 84 87
4 77 78 84 79
4 74 77 84 79
4 74 85 84 76
4 83 243 76 85
4 85 96 243 76
4 73 96 74 76
4 96 93 74 99
4 89 93 99 74
4 93 94 74 90
4 93 94 245 95
4 207 95 68 93
4 95 70 68 93
4 95 70 74 205
4 74 70 182 205
4 94 95 74 205
4 241 89 90 93
4 104 179 231 239
4 181 60 180 107
4 107 57 55 178
4 57 54 55 178
4 53 49 51 52
4 40 49 113 52
4 155 47 223 48
4 45 47 159 156
4 119 156 45 159
4 120 44 119 121
4 16 173 124 154
4 166 167 169 145
4 145 7 147 251
4 9 7 252 149
4 253 254 252 255
4 256 253 255 254
4 6 9 252 255
4 253 257 149 252
4 7 258 259 260
4 260 261 251 170
4 169 260 251 170
4 169 251 167 170
4 166 167 145 171
4 16 22 18 130
4 25 24 20 23
4 24 25 118 28
4 119 156 118 45
4 119 28 45 118
4 119 45 44 158
4 44 38 28 29
4 25 28 26 30
4 25 24 26 28
4 24 20 234 163
4 162 24 234 163
4 163 119 118 25
4 235 135 133 136
4 135 134 140 133
4 145 141 153 144
4 145 260 169 151
4 0 258 4 5
4 259 258 262 263
4 264 259 262 263
4 258 7 262 0
4 260 258 259 261
4 258 261 263 259
4 261 258 263 265
4 261 260 251 259
4 167 251 169 145
4 145 260 251 169
4 166 167 171 168
4 16 171 153 140
4 137 135 136 134
4 138 135 235 136
4 235 138 136 164
4 236 119 156 164
4 157 156 159 47
4 155 47 48 40
4 40 49 48 155
4 46 52 174 48
4 247 225 220 54
4 110 225 57 227
4 60 59 57 226
4 104 61 211 62
4 232 211 62 231
4 103 104 211 231
4 239 210 103 241
4 241 93 103 100
4 68 72 93 70
4 103 207 68 93
4 207 103 211 210
4 210 208 231 211
4 103 210 231 211
4 245 207 210 93
4 245 207 209 210
4 245 207 93 95
4 70 95 74 93
4 70 73 74 182
4 182 203 183 74
4 202 74 205 94
4 93 89 90 74
4 89 241 100 93
4 93 98 103 100
4 101 104 102 103
4 104 101 102 106
4 106 238 104 212
4 266 216 212 106
4 106 238 212 266
4 106 238 102 104
4 267 266 238 102
4 97 102 267 238
4 106 238 266 102
4 97 102 238 103
4 97 102 103 98
4 97 102 98 267
4 97 98 242 267
4 96 98 99 242
4 89 98 99 93
4 239 101 100 103
4 104 179 239 101
4 179 249 239 101
4 105 179 101 249
4 233 105 249 179
4 177 181 57 230
4 175 57 177 178
4 175 237 51 178
4 55 54 51 178
4 112 111 109 53
4 112 53 52 113
4 117 115 113 114
4 116 118 117 161
4 115 116 117 161
4 28 115 161 32
4 29 32 26 34
4 26 30 29 27
4 34 26 29 27
4 29 34 31 32
4 31 115 32 35
4 31 115 28 32
4 246 112 52 35
4 246 247 52 54
4 247 110 225 54
4 59 227 57 226
4 213 104 238 212
4 104 103 63 238
4 97 98 103 93
4 70 73 72 74
4 71 182 268 73
4 182 75 268 73
4 182 75 183 268
4 183 81 268 75
4 182 75 74 183
4 79 81 183 75
4 79 81 80 194
4 78 192 80 82
4 192 193 80 82
4 269 193 192 82
4 193 192 80 185
4 80 79 194 185
4 77 74 75 79
4 85 96 76 74
4 96 243 242 99
4 98 102 103 100
4 104 105 106 230
4 214 218 230 177
4 50 175 51 54
4 49 155 223 48
4 157 156 236 159
4 236 119 159 156
4 235 119 164 136
4 236 119 164 235
4 133 235 120 123
4 120 235 133 119
4 135 123 235 133
4 124 173 123 126
4 173 172 126 154
4 166 171 154 172
4 172 171 154 173
4 171 16 154 173
4 171 166 154 153
4 16 171 154 153
4 124 173 16 133
4 124 173 133 123
4 25 133 119 121
4 19 16 133 21
4 163 19 133 21
4 134 19 133 136
4 133 119 136 163
4 133 19 163 136
4 132 20 18 19
4 20 132 234 19
4 20 19 163 21
4 22 20 21 18
4 16 22 21 18
4 128 129 127 21
4 160 129 21 127
4 160 21 25 127
4 25 20 21 23
4 25 27 23 160
4 25 27 30 26
4 23 22 21 160
4 16 129 21 22
4 128 130 165 270
4 128 130 270 129
4 128 130 16 165
4 16 165 153 154
4 17 16 14 153
4 131 17 18 14
4 17 141 153 15
4 12 10 15 153
4 15 17 14 153
4 153 16 14 130
4 16 129 22 130
4 128 130 129 16
4 16 128 165 154
4 151 166 153 165
4 260 145 7 151
4 9 6 252 7
4 7 262 252 149
4 260 259 7 251
4 7 259 147 251
4 264 259 271 149
4 259 7 147 149
4 146 148 147 149
4 271 259 147 149
4 148 271 147 149
4 146 142 143 141
4 144 141 140 139
4 141 134 140 139
4 143 141 144 139
4 142 145 141 146
4 145 142 141 144
4 148 142 143 146
4 145 7 10 146
4 145 150 151 153
4 151 272 150 7
4 151 272 273 150
4 151 272 4 273
4 4 272 2 273
4 151 272 7 4
4 4 260 7 151
4 166 145 151 153
4 166 145 169 151
4 171 166 153 145
4 133 16 140 173
4 124 16 21 133
4 25 21 160 23
4 21 129 160 22
4 121 21 124 127
4 121 120 133 119
4 123 121 125 120
4 123 121 120 133
4 25 133 121 21
4 25 20 163 21
4 118 24 28 161
4 26 28 161 32
4 40 115 28 31
4 115 52 113 112
4 246 112 109 52
4 246 52 109 54
4 56 54 109 55
4 56 107 55 248
4 58 60 59 57
4 63 61 65 104
4 68 72 70 67
4 182 75 73 74
4 77 79 75 80
4 196 79 185 194
4 79 78 185 80
4 77 78 82 84
4 83 77 82 84
4 77 74 84 76
4 96 74 93 72
4 103 66 93 68
4 65 66 69 63
4 63 61 104 213
4 61 60 104 213
4 59 227 226 228
4 274 110 227 225
4 246 36 247 37
4 246 36 35 52
4 52 115 40 31
4 28 31 38 40
4 44 42 158 45
4 120 44 122 158
4 135 133 140 173
4 171 16 173 140
4 171 144 153 140
4 141 144 140 153
4 10 141 15 153
4 10 12 15 13
4 10 8 12 13
4 8 10 12 11
4 8 9 11 255
4 9 253 149 252
4 257 262 149 252
4 262 259 149 7
4 258 7 4 260
4 259 258 7 262
4 262 0 7 252
4 0 6 7 252
4 254 6 252 255
4 0 3 6 252
4 6 3 254 252
4 272 6 11 7
4 4 6 272 7
4 4 6 2 272
4 9 6 11 255
4 9 253 252 255
4 262 264 257 149
4 257 264 275 271
4 259 264 262 149
4 257 264 271 149
4 9 146 7 149
4 10 7 11 9
4 7 12 10 11
4 145 150 153 12
4 12 145 10 153
4 145 146 10 141
4 145 142 147 146
4 171 145 153 144
4 171 142 145 144
4 142 171 145 167
4 142 145 147 167
4 167 145 147 251
4 145 260 7 251
4 145 150 12 7
4 12 145 7 10
4 12 152 153 14
4 152 153 14 130
4 152 151 153 165
4 165 152 276 270
4 152 151 165 276
4 165 152 270 130
4 152 151 276 150
4 276 150 151 273
4 272 7 11 150
4 7 12 11 150
4 153 150 152 12
4 165 16 153 130
4 165 152 130 153
4 15 12 153 14
4 13 131 14 15
4 17 131 15 14
4 17 132 18 19
4 25 24 163 20
4 25 24 118 163
4 119 156 164 118
4 118 117 45 156
4 155 45 117 156
4 113 40 117 155
4 50 49 224 48
4 49 50 224 51
4 50 237 224 51
4 237 50 175 51
4 52 54 220 174
4 52 247 220 54
4 39 247 220 52
4 39 247 52 36
4 115 52 35 31
4 40 115 52 113
4 40 115 113 117
4 115 112 113 114
4 53 52 51 54
4 54 53 109 55
4 52 53 109 54
4 110 246 109 54
4 247 110 54 246
4 247 110 274 225
4 246 274 37 247
4 247 110 246 274
4 110 225 54 57
4 57 217 226 219
4 57 217 218 230
4 219 218 54 57
4 218 54 174 220
4 46 39 52 40
4 39 31 52 40
4 38 42 45 40
4 28 38 44 45
4 121 25 44 119
4 123 135 173 133
4 134 153 140 16
4 134 16 140 133
4 137 135 134 140
4 134 153 141 140
4 134 153 16 17
4 16 17 19 134
4 134 153 17 141
4 153 145 10 141
4 6 9 11 7
4 258 7 0 4
4 1 0 2 5

CELL_TYPES 734
10
10
10
10
10
10
10
10
10
10
10
10
10
10
10
10
10
10
10
10
10
10
10
10
10
10
10
10
10
10
10
10
10
10
10
10
10
10
10
10
10
10
10
10
10
10
10
10
10
10
10
10
10
10
10
10
10
10
10
10
10
10
10
10
10
10
10
10
10
10
10
10
10
10
10
10
10
10
10
10
10
10
10
10
10
10
10
10
10
10
10
10
10
10
10
10
10
10
10
10
10
10
10
10
10
10
10
10
10
10
10
10
10
10
10
10
10
10
10
10
10
10
10
10
10
10
10
10
10
10
10
10
10
10
10
10
10
10
10
10
10
10
10
10
10
10
10
10
10
10
10
10
10
10
10
10
10
10
10
10
10
10
10
10
10
10
10
10
10
10
10
10
10
10
10
10
10
10
10
10
10
10
10
10
10
10
10
10
10
10
10
10
10
10
10
10
10
10
10
10
10
10
10
10
10
10
10
10
10
10
10
10
10
10
10
10
10
10
10
10
10
10
10
10
10
10
10
10
10
10
10
10
10
10
10
10
10
10
10
10
10
10
10
10
10
10
10
10
10
10
10
10
10
10
10
10
10
10
10
10
10
10
10
10
10
10
10
10
10
10
10
10
10
10
10
10
10
10
10
10
10
10
10
10
10
10
10
10
10
10
10
10
10
10
10
10
10
10
10
10
10
10
10
10
10
10
10
10
10
10
10
10
10
10
10
10
10
10
10
10
10
10
10
10
10
10
10
10
10
10
10
10
10
10
10
10
10
10
10
10
10
10
10
10
10
10
10
10
10
10
10
10
10
10
10
10
10
10
10
10
10
10
10
10
10
10
10
10
10
10
10
10
10
10
10
10
10
10
10
10
10
10
10
10
10
10
10
10
10
10
10
10
10
10
10
10
10
10
10
10
10
10
10
10
10
10
10
10
10
10
10
10
10
10
10
10
10
10
10
10
10
10
10
10
10
10
10
10
10
10
10
10
10
10
10
10
10
10
10
10
10
10
10
10
10
10
10
10
10
10
10
10
10
10
10
10
10
10
10
10
10
10
10
10
10
10
10
10
10
10
10
10
10
10
10
10
10
10
10
10
10
10
10
10
10
10
10
10
10
10
10
10
10
10
10
10
10
10
10
10
10
10
10
10
10
10
10
10
10
10
10
10
10
10
10
10
10
10
10
10
10
10
10
10
10
10
10
10
10
10
10
10
10
10
10
10
10
10
10
10
10
10
10
10
10
10
10
10
10
10
10
10
10
10
10
10
10
10
10
10
10
10
10
10
10
10
10
10
10
10
10
10
10
10
10
10
10
10
10
10
10
10
10
10
10
10
10
10
10
10
10
10
10
10
10
10
10
10
10
10
10
10
10
10
10
10
10
10
10
10
10
10
10
10
10
10
10
10
10
10
10
10
10
10
10
10
10
10
10
10
10
10
10
10
10
10
10
10
10
10
10
10
10
10
10
10
10
10
10
10
10
10
10
10
10
10
10
10
10
10
10
10
10
10
10
10
10
10
10
10
10
10
10
10
10
10
10
10
10
10
10
10
10
10
10
10
10
10
10
10
10
10
10
10
10
10
10
10
10
10
10
10
10
10
10
10
10
10
10
10
10
10
10
10
10
10
10
10
10
10
10
10
10
10
10
10
10
10
10
10
10
10
10
10

CELL_DATA 734
SCALARS potentialEnergy FLOAT 1
LOOKUP_TABLE default
57.005466
24.197279
61.040504
68.894688
24.988564
127.184891
70.648502
87.297913
48.963261
75.142311
112.554710
91.917191
97.175545
185.075653
123.419258
173.442261
80.126915
343.983612
147.803619
195.626251
300.079102
109.508865
48.944393
130.990448
105.361267
146.881973
116.828087
64.710518
75.662315
69.236023
50.028706
49.100883
76.476807
233.161606
106.634109
114.849396
62.744495
37.068975
27.339785
59.846619
33.500618
24.778827
108.378555
30.449797
19.627535
21.015388
41.065365
88.405945
47.205601
54.991589
24.308805
28.534603
90.063164
88.889908
91.347588
70.491966
21.533411
46.349056
72.604221
83.368988
86.351074
129.501457
109.133072
285.848358
81.150620
138.718323
128.698257
248.838638
183.055374
136.635048
33.596735
39.957037
34.418589
62.374432
29.348972
67.218456
46.011845
64.121658
33.609480
79.949615
62.418663
29.791061
115.849564
81.883934
99.614761
137.925087
100.500748
127.821518
72.548431
180.954483
67.285702
59.223793
76.147224
114.310196
130.216591
158.556778
86.639305
120.821449
130.281952
83.546829
124.450714
94.280640
56.350716
56.497139
58.857296
61.257748
93.951324
105.959206
83.866760
99.371994
50.694138
163.304901
240.361374
116.265846
183.091980
166.611465
91.815186
49.201530
89.771889
68.286427
80.200409
50.809402
79.790779
64.414375
128.074089
49.300949
40.486361
75.674797
89.615738
64.792248
112.002914
219.543427
160.836868
109.198402
48.715176
42.982407
26.327097
43.952145
122.415627
169.770325
54.045376
127.494675
108.875839
149.931366
52.910393
162.554337
73.068481
112.396202
60.526680
14.580480
148.586838
156.310196
81.914009
99.619606
85.209145
74.362434
105.606804
147.913574
34.048769
34.996336
104.931160
98.764091
79.624718
60.023914
76.567924
35.628965
23.808545
81.211800
52.862793
58.945652
96.874992
105.809578
123.977806
154.287064
115.404434
78.220444
32.414574
23.946414
27.600080
34.765200
46.238102
176.061310
32.627680
65.910202
129.966911
144.464813
168.761108
197.844696
160.318405
117.989105
183.289017
113.759254
285.592560
192.678253
123.016212
223.280792
42.591541
100.624336
116.800812
36.652119
58.199547
61.666428
157.026199
112.656761
85.663437
28.588634
78.464119
37.414772
79.642395
67.792255
54.900280
75.758644
142.286514
65.305573
115.510475
57.009926
116.054565
34.201445
39.061546
42.557762
45.466743
48.433422
85.019890
60.325062
72.390831
72.980888
152.882431
144.069763
345.535461
222.908218
176.103210
42.324097
40.967447
23.707117
107.001717
68.810287
92.021065
130.710342
87.334953
54.956295
159.439728
135.821907
221.520020
27.033323
25.470755
40.920418
70.932404
65.519371
65.132576
18.413615
151.029755
89.025352
117.124863
17.266287
79.749832
62.551579
24.903491
32.605106
68.919918
91.801430
44.377056
79.711227
65.249405
76.030899
36.468945
27.559786
44.348625
18.202818
41.910177
41.187002
31.781645
37.746155
35.961866
51.638351
28.468845
58.193798
56.764614
25.185164
38.994219
52.479603
56.434822
73.378475
53.544994
65.326950
52.422508
61.091633
23.505477
61.018353
46.048931
38.594389
40.987953
101.649857
116.015305
212.435486
168.555298
209.392075
171.592392
180.954865
236.959717
105.028130
78.144241
167.830673
57.021297
73.876755
58.234798
129.833084
119.812805
99.000107
106.314217
85.912010
179.714294
107.699356
65.876366
33.165752
61.000549
100.891457
29.038706
71.436169
53.074806
83.107735
111.352615
59.806473
25.380333
36.278767
39.527302
38.295237
42.082893
53.834705
64.620941
29.031748
57.682114
32.948071
47.662304
72.638165
276.474396
77.451614
133.944908
79.083832
22.542653
41.829538
31.860395
60.238262
85.821472
58.797413
37.955782
33.940910
35.292076
59.262398
27.873091
35.271774
15.098264
24.657259
132.177406
108.718330
28.798597
54.594776
39.486290
70.657120
60.465435
47.472408
40.583050
31.628052
97.625839
84.483208
82.972977
82.064117
77.270103
146.362320
55.933479
146.718155
123.713829
108.559059
30.306482
213.437363
94.936249
42.275452
45.804329
40.144638
32.651457
21.501290
51.052986
95.361694
64.694538
102.181068
158.427307
38.652885
56.047508
27.909809
62.965664
60.888760
116.770470
260.697754
28.247900
33.437878
53.580555
42.089703
99.127174
92.151405
88.803177
115.636703
47.596546
34.884003
280.993134
196.615051
65.042931
98.771622
127.750938
40.279837
71.668179
188.971649
101.050385
107.734764
64.401478
32.286039
40.507257
38.372601
80.982262
72.953785
176.129959
141.941132
201.485626
65.939610
59.915417
85.099686
150.666489
35.133585
38.102844
31.081316
39.228638
106.775948
60.389652
85.418266
29.546217
40.675634
54.678818
45.812164
63.349594
118.144447
40.863613
44.670979
67.570095
47.112720
63.923912
48.124935
37.289515
29.847593
39.987730
38.331425
23.529240
16.356856
18.063919
32.832880
21.663250
52.147270
36.319065
35.968796
30.651432
32.266878
92.933083
28.074299
41.233969
25.904534
33.623262
14.273857
64.126694
218.296265
126.000259
131.053551
170.239624
170.945343
79.562317
57.349297
111.425682
92.102951
97.477165
80.891693
126.328201
108.795380
169.341568
109.692284
290.867157
138.140778
118.636589
85.720718
124.028625
27.082355
39.792360
67.738976
63.800621
53.573616
55.628845
62.431179
44.195908
72.091408
96.240349
57.491829
41.896519
84.052521
27.620646
37.539326
140.809891
44.065723
79.745224
17.240885
86.946388
111.818695
265.157761
68.518314
69.626286
120.808846
69.009247
59.815197
65.040443
98.997078
68.799042
45.798042
28.432335
56.456207
61.382893
65.153759
158.365036
58.262653
98.291626
56.378906
97.282600
47.334301
50.283566
44.862362
93.710609
43.993309
36.673376
34.322304
48.768353
38.627602
34.902220
23.084604
50.673687
44.092648
68.393520
58.266861
37.708576
50.813152
23.345257
42.698895
47.193607
66.594250
35.284245
97.312828
44.987427
98.255722
183.915848
136.492386
55.078011
41.617292
29.265984
35.124481
79.420761
56.099861
54.514244
58.817410
137.174934
100.680214
54.061687
160.594131
163.207199
107.388474
212.724564
117.551086
27.200647
45.358459
74.171944
289.301758
116.433830
149.806824
54.853855
220.777100
138.501236
95.210808
87.399696
65.616615
67.938210
74.200119
101.215797
131.342331
117.069893
114.169189
33.899588
35.673887
43.816875
42.366486
119.145592
50.635937
102.052719
79.877251
102.682228
40.078415
114.198853
387.504181
284.705872
286.292694
99.438240
177.103577
57.883587
46.254936
117.227516
30.548225
70.594254
55.236591
53.893997
76.188927
64.349998
41.688931
62.256187
49.506523
51.914608
31.409855
118.890999
147.038681
127.657097
20.643828
79.762856
421.741974
175.054504
154.545532
214.989166
28.088337
64.903080
62.162262
50.542297
33.941051
105.849625
89.932121
91.804016
81.847198
97.104813
34.609131
25.221517
67.789185
56.478409
193.256943
49.980602
24.271297
64.722851
164.620834
159.040009
88.455063
83.614685
141.508621
128.108513
22.837213
25.522913
91.382416
51.338665
31.742458
114.035378
161.914108
82.334549
136.866905
209.359299
194.968552
227.532974
130.804207
100.185547
137.715851
139.676300
109.642967
105.474350
48.380871
45.263931
130.763359
92.079399
173.928696
105.415039
118.308060
56.444626
139.332016
188.238174
86.040092
92.479958
145.969894
74.088013
71.891079
195.098083
58.273834
50.654228
24.066818
62.407372
54.383022
54.553772
144.061615
99.188019
83.788345
160.886353
126.899727
86.215065
74.705559
312.257385
80.647285
60.939728
254.806366
217.404892
121.603783
179.974976
215.162384
100.309685
163.204422
162.167801
107.566849
154.017166
59.830399
167.319092
80.242943
167.179153
104.267075
137.594772
129.364822
221.046783
137.861572
114.326424
116.906670
263.727768
126.401695
47.204578
62.508625
114.429512
45.251530
74.527802
77.636543
31.636803
112.582535
130.824860
211.165710
33.366198
46.928574

