# vtk DataFile Version 3.1
Tetrahedral Mesh Visualization
ASCII
DATASET UNSTRUCTURED_GRID

POINTS 277 FLOAT
0.000000 1.378113 1.754166
0.000000 0.000000 0.000000
2.001547 -0.005037 0.006493
0.000000 1.666667 0.000000
2.421594 -0.005385 1.739611
0.000000 0.000000 1.666667
1.698778 2.460322 -0.000908
2.996551 2.454674 2.322009
4.017826 4.990157 0.014058
3.080626 4.995162 1.640614
5.219837 5.002682 1.640147
3.507937 3.167371 0.011254
5.429142 3.296050 0.041854
6.025152 4.994241 0.049117
7.392151 3.331821 0.069352
6.982448 5.000224 1.384931
9.254158 2.184454 2.125029
8.704915 5.002667 1.688192
9.381739 3.329483 0.095544
10.674401 4.999286 1.770731
11.385292 3.326599 0.138802
11.124711 1.871523 1.693455
10.716252 1.667042 0.128212
12.724599 1.667622 0.183808
13.387775 3.328648 0.199732
12.991658 1.882135 1.687383
14.723610 1.659096 0.244159
14.050289 -0.001854 0.225883
15.477367 2.137276 1.963513
15.344155 -0.005325 1.933124
13.348736 0.008482 1.869475
17.301781 -0.010756 1.928694
16.713848 1.646814 0.301694
18.032116 -0.028345 0.331530
16.040453 -0.019223 0.290492
18.706215 1.644771 0.336064
19.016912 -0.012017 1.663435
20.029209 -0.017331 0.350827
16.717251 0.003921 3.610010
18.990332 -0.001313 3.455689
17.692446 2.682262 3.272369
17.958204 0.005743 5.323502
16.636057 1.671801 5.306936
15.942407 0.020817 5.292131
14.659360 0.015351 3.580763
15.753776 2.887705 3.635959
18.691595 1.701726 5.341474
17.270380 3.340032 5.319790
19.242683 3.391986 5.346678
19.313263 4.995158 3.677576
20.957060 3.670966 5.358420
21.314262 4.984029 3.691227
19.624779 2.485227 2.711099
20.670591 4.981124 2.019978
21.910547 2.492316 2.837773
22.670435 4.979950 2.031525
23.340666 3.379667 0.372706
23.971178 2.440370 2.684940
25.050241 3.669392 0.400810
25.046572 1.881576 0.404752
25.992043 2.494630 2.157202
27.318846 1.683384 0.460118
26.759430 3.371176 0.436471
29.284922 0.003867 2.145987
28.064024 -0.011610 0.492480
29.371292 1.661460 0.529231
31.009138 0.003140 1.902309
32.055634 0.003870 0.605835
31.366003 1.663716 0.583178
30.062866 -0.009800 0.556524
33.336441 1.649719 0.629907
34.061348 0.002520 0.651638
32.698761 0.003680 2.234552
34.615582 0.005959 2.352303
34.985668 2.404730 3.207967
36.526188 0.005956 2.546144
35.110630 0.007810 4.072396
36.794758 0.009968 4.286597
38.215748 2.528269 5.769453
37.691891 2.165086 2.940453
38.294262 -0.000131 3.312147
38.065601 0.001189 0.762491
37.920116 0.008208 5.771958
35.916611 0.010953 5.713665
36.480530 1.759115 5.727186
34.856728 1.346594 5.676767
34.775600 3.146532 5.661723
36.678246 3.492175 5.719539
33.924171 5.025329 5.630151
32.629711 3.313207 5.596435
33.249432 5.015533 3.962414
31.935629 5.010443 5.595567
35.129486 5.009126 4.059053
32.196804 2.598632 3.030722
34.609558 5.004338 2.348668
32.699581 3.323409 0.619404
33.180271 0.002370 3.947151
30.956871 0.001832 3.691600
31.241776 1.659851 5.581929
33.174335 1.614123 5.627298
30.600817 3.334937 5.557811
28.591396 3.339675 5.494581
29.254534 1.675564 5.525518
30.009214 2.506922 3.022907
27.947176 2.497028 2.954390
26.598534 3.344004 5.444411
27.257126 1.674349 5.468005
24.670328 4.991925 2.055347
22.036480 4.976670 0.361894
21.376966 3.319350 0.360276
22.775440 1.691554 0.364898
20.038399 4.967907 0.343559
19.376558 3.308933 0.344832
18.671440 4.985658 2.001104
18.041809 4.971477 0.319586
17.376579 3.309663 0.317972
16.053265 4.990897 0.290004
16.675364 4.990307 1.973288
14.675426 4.992936 1.917433
13.671791 2.972673 3.495310
12.942501 1.341921 5.201745
12.651841 0.013122 3.515631
13.938214 0.020502 5.232711
11.231581 1.625096 5.142671
10.643440 0.007166 3.458315
11.948739 0.006311 5.157530
9.960305 0.000813 5.111485
11.342100 0.011236 1.808830
9.317640 0.007519 1.770419
10.038577 0.006229 0.116232
8.717109 1.666197 0.092298
8.030502 5.001286 0.072542
10.041478 4.991187 0.101559
11.206007 2.649956 3.422557
9.245386 5.005515 3.385492
10.701235 3.322005 5.129841
11.294619 5.005202 3.459760
9.963055 5.014875 5.101754
11.943254 5.017227 5.162707
7.978007 5.004595 5.073309
8.715263 3.394222 5.083815
6.959085 5.005561 3.176265
5.337008 3.381531 5.038163
5.977939 5.012462 5.045290
7.007733 3.686098 5.065942
5.128794 2.380546 3.175287
4.614496 5.012373 3.309028
3.474374 3.202116 5.008651
3.982949 5.016354 5.012072
2.369063 5.004090 3.272773
4.863755 1.595968 0.037809
4.909596 -0.001404 1.917273
6.754409 1.655581 0.069371
7.010150 2.569180 2.261372
8.638035 0.002890 3.428190
17.315363 4.996297 3.654922
15.310367 5.001966 3.602449
15.952053 5.005061 5.285697
14.658891 1.627614 5.255043
15.217305 3.315855 5.268990
12.048407 0.006470 0.162147
15.383911 3.323255 0.269853
14.062695 4.990195 0.222691
12.677013 4.998594 1.842476
13.301947 5.011288 3.539762
7.247699 0.004946 1.771071
6.651927 0.005969 3.447510
4.888095 1.659244 5.043631
5.966815 0.007995 5.063964
4.899882 0.009687 3.705162
3.979016 0.007119 5.030122
7.018498 1.892523 5.066437
7.963293 0.001239 5.078759
9.239408 1.693897 5.098827
20.961628 1.881854 5.362169
22.664190 3.374859 5.373216
23.949560 4.996094 5.388705
24.613531 3.341241 5.404912
23.308605 4.986582 3.708454
27.295576 5.006581 3.783643
26.670435 4.990119 2.096314
25.302315 4.998351 3.736733
35.223053 1.605425 0.675004
36.901962 1.453853 0.726166
39.952412 3.256049 4.428438
39.981754 1.633574 3.404750
38.293388 5.004335 3.286145
40.003963 3.253257 2.701975
39.958584 5.012937 4.132121
37.916798 5.012866 5.749785
39.904419 5.028550 5.801878
39.916000 3.349868 5.805837
39.920860 1.680900 5.806904
39.970261 0.010527 4.153112
40.006554 0.002657 2.482732
40.065506 -0.007086 0.823133
40.067848 1.664617 0.805175
40.057461 3.328595 0.800809
38.370018 2.460239 0.765211
38.060959 4.990444 0.742533
40.011719 5.000226 2.463104
36.800701 5.006488 4.261187
36.522350 5.002571 2.528358
36.577202 3.177014 0.715260
36.059662 4.993331 0.692152
34.659538 3.301332 0.662679
34.057568 4.995144 0.640123
30.713490 3.336608 0.570386
30.061472 4.999079 0.555749
32.059872 5.001528 0.600390
30.668056 5.005980 2.239369
28.721695 3.328465 0.496649
26.698139 0.002376 3.835059
27.275927 -0.005578 2.153518
25.259577 1.672017 5.420977
23.958620 -0.015853 5.390128
25.942469 -0.002492 5.438016
24.981859 -0.010243 4.085554
23.226027 1.683721 5.374356
23.265667 -0.013389 3.758168
21.255009 -0.009714 3.672364
21.967716 -0.009341 5.368172
19.964634 0.001864 5.354452
17.960541 4.999576 5.331523
19.969641 4.996485 5.347629
22.744877 -0.005626 2.054466
25.008198 -0.005432 2.291513
24.042963 -0.000983 0.387602
26.053589 -0.005432 0.430206
26.051414 4.984681 0.417558
25.676128 2.236235 3.910333
28.667446 4.992595 2.151276
28.051849 4.975549 0.463269
25.935928 5.008064 5.422964
12.055158 4.988993 0.155909
12.945790 3.133353 5.203597
13.947538 5.015211 5.226618
21.963238 4.983519 5.366984
28.701294 0.009900 3.821419
29.288269 5.001250 3.842192
29.919106 4.998556 5.532915
31.286438 5.008557 3.922572
31.927691 0.004763 5.602613
33.922020 0.008983 5.655694
35.919281 5.015763 5.688875
32.646675 4.996801 2.281599
20.716463 1.652971 0.362227
20.731573 -0.013862 1.974616
24.043465 4.991140 0.382098
27.928507 5.008024 5.473103
40.057392 4.996675 0.795828
3.172271 1.473210 5.010530
0.000000 3.103853 1.750106
0.000000 5.000000 1.666667
0.000000 3.333333 0.000000
2.001690 4.986885 -0.001960
0.000000 5.000000 0.000000
0.000000 5.000000 3.333333
0.000000 0.000000 3.333333
1.694935 2.472578 4.999870
3.032019 0.001384 3.398398
1.995418 0.003724 5.009146
0.000000 2.403264 3.370902
0.000000 1.666667 5.000000
0.000000 3.333333 5.000000
0.000000 0.000000 5.000000
27.927685 0.002656 5.487382
29.922955 0.007290 5.549985
36.067894 0.003200 0.708696
39.933598 0.016396 5.810894
8.030058 0.002426 0.087322
1.994420 5.004918 4.996514
3.173948 1.445962 0.014261
4.017776 -0.001471 0.026626
22.029554 -0.010304 0.366868
0.000000 5.000000 5.000000
6.031790 -0.001658 0.062946

CELLS 734 3670
4 0 1 2 3
4 0 4 2 5
4 0 3 2 6
4 4 6 0 2
4 4 6 7 0
4 8 9 10 11
4 12 13 14 15
4 16 17 14 18
4 19 20 18 21
4 20 22 21 23
4 24 25 26 23
4 25 27 26 23
4 26 28 29 30
4 28 29 31 32
4 33 34 32 31
4 31 33 35 32
4 31 33 36 35
4 33 37 36 35
4 38 39 40 31
4 41 42 43 38
4 44 42 45 38
4 44 42 38 43
4 46 38 42 41
4 46 47 40 48
4 49 50 51 52
4 53 54 51 55
4 56 54 55 57
4 56 58 59 57
4 60 59 61 62
4 63 61 64 65
4 66 67 68 69
4 67 70 71 72
4 73 74 75 76
4 74 77 75 76
4 77 78 79 80
4 79 81 75 80
4 77 78 80 82
4 77 83 76 84
4 83 85 76 84
4 85 86 74 84
4 74 86 87 84
4 88 89 86 90
4 91 89 88 90
4 86 88 90 92
4 90 86 92 74
4 86 89 74 90
4 93 94 95 74
4 70 74 72 93
4 70 73 71 72
4 74 96 73 72
4 66 97 93 72
4 96 97 72 93
4 96 98 97 93
4 85 96 74 99
4 96 98 93 99
4 98 89 100 93
4 101 102 100 103
4 104 105 101 106
4 107 58 57 60
4 58 107 57 56
4 53 108 109 55
4 56 110 109 54
4 53 111 109 108
4 112 53 109 52
4 111 112 113 53
4 112 111 113 114
4 115 116 114 117
4 40 28 115 117
4 45 117 118 28
4 119 28 25 44
4 120 44 121 122
4 123 121 124 125
4 125 123 126 124
4 127 128 21 124
4 16 129 128 21
4 16 18 14 130
4 16 17 18 19
4 131 17 132 18
4 16 19 18 21
4 133 16 19 134
4 135 134 133 136
4 135 137 136 138
4 137 134 139 140
4 141 142 143 144
4 145 146 147 7
4 142 148 147 146
4 7 146 147 149
4 10 7 9 146
4 145 150 7 151
4 152 151 150 153
4 16 128 154 124
4 124 21 121 133
4 25 28 30 44
4 28 38 45 40
4 45 47 40 42
4 155 45 156 47
4 157 156 47 155
4 155 45 40 117
4 45 42 158 159
4 44 42 43 158
4 119 45 158 159
4 120 44 158 119
4 25 127 21 121
4 25 27 160 30
4 127 25 160 30
4 25 127 121 30
4 44 25 121 30
4 28 30 44 29
4 119 28 44 45
4 119 28 118 25
4 28 24 26 161
4 26 32 29 28
4 28 31 29 38
4 46 38 41 39
4 46 38 39 40
4 28 117 40 45
4 118 28 117 161
4 162 24 118 161
4 118 119 163 164
4 136 119 164 163
4 25 133 21 163
4 128 16 21 124
4 165 166 153 154
4 166 167 168 169
4 167 168 169 170
4 171 168 172 166
4 124 173 126 154
4 123 121 133 124
4 120 125 122 121
4 122 158 44 43
4 47 46 40 42
4 52 50 174 48
4 175 50 174 54
4 176 175 177 178
4 179 60 180 181
4 64 69 63 65
4 68 72 67 66
4 70 73 182 71
4 74 79 183 75
4 184 78 185 79
4 79 184 186 187
4 186 184 188 187
4 184 189 190 191
4 184 78 79 186
4 78 189 184 191
4 189 184 190 188
4 184 78 191 192
4 184 78 192 185
4 192 78 80 185
4 193 80 194 185
4 195 81 196 194
4 81 79 196 194
4 197 187 196 198
4 187 79 185 196
4 79 184 187 185
4 197 199 187 198
4 199 197 187 200
4 199 200 187 186
4 78 201 79 186
4 189 201 87 78
4 202 201 79 74
4 201 74 92 87
4 201 202 92 74
4 201 202 79 186
4 202 203 74 79
4 202 198 203 79
4 204 202 199 203
4 202 203 205 74
4 202 204 205 203
4 182 203 74 205
4 74 203 183 79
4 79 203 183 198
4 79 81 198 183
4 81 79 198 196
4 187 79 196 198
4 202 198 79 186
4 202 204 94 205
4 94 95 205 206
4 207 208 209 210
4 208 207 211 210
4 104 103 211 65
4 104 60 212 213
4 214 215 216 217
4 218 219 220 221
4 222 174 220 221
4 46 39 222 174
4 52 46 40 48
4 40 49 52 48
4 53 49 52 113
4 40 49 155 113
4 155 45 47 40
4 157 47 223 155
4 49 223 224 48
4 52 50 51 54
4 175 54 57 178
4 218 175 54 57
4 225 219 54 57
4 218 175 57 177
4 57 217 219 218
4 219 225 226 57
4 225 227 226 57
4 59 110 57 227
4 59 60 61 228
4 61 60 213 228
4 64 61 213 228
4 63 61 213 64
4 61 104 211 65
4 180 60 104 62
4 58 229 62 180
4 58 60 180 62
4 60 61 104 62
4 60 226 230 212
4 226 60 213 212
4 60 104 212 230
4 179 60 230 104
4 104 211 231 62
4 180 229 62 232
4 180 232 62 231
4 179 60 104 180
4 233 181 105 179
4 181 105 179 230
4 105 214 106 230
4 105 214 230 177
4 215 214 218 217
4 215 217 218 219
4 218 215 219 221
4 218 175 174 54
4 39 52 220 174
4 39 46 52 174
4 115 52 112 35
4 28 115 117 161
4 162 118 116 161
4 24 162 118 163
4 20 19 234 163
4 25 133 163 119
4 120 119 158 235
4 236 119 235 159
4 235 119 158 159
4 119 235 133 136
4 138 235 236 164
4 45 47 42 159
4 46 38 40 42
4 49 50 52 48
4 237 175 176 178
4 181 233 177 176
4 180 179 231 104
4 207 103 65 211
4 207 103 68 65
4 65 66 103 68
4 103 66 97 93
4 66 103 97 63
4 213 104 63 238
4 238 97 103 63
4 104 102 103 238
4 104 106 212 230
4 214 212 106 230
4 214 212 216 106
4 214 212 217 216
4 214 212 230 217
4 226 217 230 212
4 226 60 230 57
4 181 60 57 230
4 179 105 104 230
4 179 105 101 104
4 104 239 103 101
4 239 101 240 100
4 91 241 240 100
4 241 239 240 100
4 239 241 103 100
4 103 210 93 241
4 103 207 93 210
4 210 103 231 239
4 103 239 104 231
4 103 104 63 65
4 65 66 63 103
4 65 66 68 69
4 68 72 66 93
4 96 98 242 97
4 85 96 99 243
4 85 86 99 74
4 86 89 99 74
4 88 86 244 92
4 74 86 92 87
4 201 244 87 92
4 244 86 87 92
4 90 74 92 94
4 94 95 206 245
4 95 209 206 245
4 245 207 95 209
4 208 232 231 211
4 180 104 231 62
4 181 60 107 57
4 54 175 51 178
4 50 52 174 54
4 246 36 52 247
4 246 36 37 35
4 52 31 36 35
4 31 39 52 36
4 39 46 222 41
4 39 222 174 220
4 174 218 220 221
4 218 219 54 220
4 225 219 220 54
4 56 110 54 57
4 110 56 59 57
4 60 59 226 228
4 60 226 213 228
4 57 217 230 226
4 214 217 230 218
4 218 57 230 177
4 181 105 230 177
4 179 60 181 230
4 58 107 180 60
4 229 107 58 248
4 229 107 180 58
4 60 58 59 62
4 58 107 56 248
4 108 56 109 55
4 108 56 55 248
4 107 56 55 57
4 107 181 57 178
4 57 181 177 178
4 181 176 177 178
4 233 181 177 105
4 249 239 101 240
4 91 89 241 100
4 89 91 241 90
4 210 245 93 241
4 245 241 90 93
4 93 94 90 245
4 74 202 92 94
4 205 204 94 206
4 202 198 199 203
4 202 198 186 199
4 199 197 200 250
4 199 186 187 198
4 200 186 188 187
4 184 189 186 188
4 201 189 87 244
4 189 201 78 186
4 201 78 79 87
4 189 78 184 186
4 186 79 187 198
4 74 201 79 87
4 74 79 84 87
4 79 78 84 87
4 77 78 84 79
4 74 77 84 79
4 74 85 84 76
4 83 243 76 85
4 85 96 243 76
4 73 96 74 76
4 96 93 74 99
4 89 93 99 74
4 93 94 74 90
4 93 94 245 95
4 207 95 68 93
4 95 70 68 93
4 95 70 74 205
4 74 70 182 205
4 94 95 74 205
4 241 89 90 93
4 104 179 231 239
4 181 60 180 107
4 107 57 55 178
4 57 54 55 178
4 53 49 51 52
4 40 49 113 52
4 155 47 223 48
4 45 47 159 156
4 119 156 45 159
4 120 44 119 121
4 16 173 124 154
4 166 167 169 145
4 145 7 147 251
4 9 7 252 149
4 253 254 252 255
4 256 253 255 254
4 6 9 252 255
4 253 257 149 252
4 7 258 259 260
4 260 261 251 170
4 169 260 251 170
4 169 251 167 170
4 166 167 145 171
4 16 22 18 130
4 25 24 20 23
4 24 25 118 28
4 119 156 118 45
4 119 28 45 118
4 119 45 44 158
4 44 38 28 29
4 25 28 26 30
4 25 24 26 28
4 24 20 234 163
4 162 24 234 163
4 163 119 118 25
4 235 135 133 136
4 135 134 140 133
4 145 141 153 144
4 145 260 169 151
4 0 258 4 5
4 259 258 262 263
4 264 259 262 263
4 258 7 262 0
4 260 258 259 261
4 258 261 263 259
4 261 258 263 265
4 261 260 251 259
4 167 251 169 145
4 145 260 251 169
4 166 167 171 168
4 16 171 153 140
4 137 135 136 134
4 138 135 235 136
4 235 138 136 164
4 236 119 156 164
4 157 156 159 47
4 155 47 48 40
4 40 49 48 155
4 46 52 174 48
4 247 225 220 54
4 110 225 57 227
4 60 59 57 226
4 104 61 211 62
4 232 211 62 231
4 103 104 211 231
4 239 210 103 241
4 241 93 103 100
4 68 72 93 70
4 103 207 68 93
4 207 103 211 210
4 210 208 231 211
4 103 210 231 211
4 245 207 210 93
4 245 207 209 210
4 245 207 93 95
4 70 95 74 93
4 70 73 74 182
4 182 203 183 74
4 202 74 205 94
4 93 89 90 74
4 89 241 100 93
4 93 98 103 100
4 101 104 102 103
4 104 101 102 106
4 106 238 104 212
4 266 216 212 106
4 106 238 212 266
4 106 238 102 104
4 267 266 238 102
4 97 102 267 238
4 106 238 266 102
4 97 102 238 103
4 97 102 103 98
4 97 102 98 267
4 97 98 242 267
4 96 98 99 242
4 89 98 99 93
4 239 101 100 103
4 104 179 239 101
4 179 249 239 101
4 105 179 101 249
4 233 105 249 179
4 177 181 57 230
4 175 57 177 178
4 175 237 51 178
4 55 54 51 178
4 112 111 109 53
4 112 53 52 113
4 117 115 113 114
4 116 118 117 161
4 115 116 117 161
4 28 115 161 32
4 29 32 26 34
4 26 30 29 27
4 34 26 29 27
4 29 34 31 32
4 31 115 32 35
4 31 115 28 32
4 246 112 52 35
4 246 247 52 54
4 247 110 225 54
4 59 227 57 226
4 213 104 238 212
4 104 103 63 238
4 97 98 103 93
4 70 73 72 74
4 71 182 268 73
4 182 75 268 73
4 182 75 183 268
4 183 81 268 75
4 182 75 74 183
4 79 81 183 75
4 79 81 80 194
4 78 192 80 82
4 192 193 80 82
4 269 193 192 82
4 193 192 80 185
4 80 79 194 185
4 77 74 75 79
4 85 96 76 74
4 96 243 242 99
4 98 102 103 100
4 104 105 106 230
4 214 218 230 177
4 50 175 51 54
4 49 155 223 48
4 157 156 236 159
4 236 119 159 156
4 235 119 164 136
4 236 119 164 235
4 133 235 120 123
4 120 235 133 119
4 135 123 235 133
4 124 173 123 126
4 173 172 126 154
4 166 171 154 172
4 172 171 154 173
4 171 16 154 173
4 171 166 154 153
4 16 171 154 153
4 124 173 16 133
4 124 173 133 123
4 25 133 119 121
4 19 16 133 21
4 163 19 133 21
4 134 19 133 136
4 133 119 136 163
4 133 19 163 136
4 132 20 18 19
4 20 132 234 19
4 20 19 163 21
4 22 20 21 18
4 16 22 21 18
4 128 129 127 21
4 160 129 21 127
4 160 21 25 127
4 25 20 21 23
4 25 27 23 160
4 25 27 30 26
4 23 22 21 160
4 16 129 21 22
4 128 130 165 270
4 128 130 270 129
4 128 130 16 165
4 16 165 153 154
4 17 16 14 153
4 131 17 18 14
4 17 141 153 15
4 12 10 15 153
4 15 17 14 153
4 153 16 14 130
4 16 129 22 130
4 128 130 129 16
4 16 128 165 154
4 151 166 153 165
4 260 145 7 151
4 9 6 252 7
4 7 262 252 149
4 260 259 7 251
4 7 259 147 251
4 264 259 271 149
4 259 7 147 149
4 146 148 147 149
4 271 259 147 149
4 148 271 147 149
4 146 142 143 141
4 144 141 140 139
4 141 134 140 139
4 143 141 144 139
4 142 145 141 146
4 145 142 141 144
4 148 142 143 146
4 145 7 10 146
4 145 150 151 153
4 151 272 150 7
4 151 272 273 150
4 151 272 4 273
4 4 272 2 273
4 151 272 7 4
4 4 260 7 151
4 166 145 151 153
4 166 145 169 151
4 171 166 153 145
4 133 16 140 173
4 124 16 21 133
4 25 21 160 23
4 21 129 160 22
4 121 21 124 127
4 121 120 133 119
4 123 121 125 120
4 123 121 120 133
4 25 133 121 21
4 25 20 163 21
4 118 24 28 161
4 26 28 161 32
4 40 115 28 31
4 115 52 113 112
4 246 112 109 52
4 246 52 109 54
4 56 54 109 55
4 56 107 55 248
4 58 60 59 57
4 63 61 65 104
4 68 72 70 67
4 182 75 73 74
4 77 79 75 80
4 196 79 185 194
4 79 78 185 80
4 77 78 82 84
4 83 77 82 84
4 77 74 84 76
4 96 74 93 72
4 103 66 93 68
4 65 66 69 63
4 63 61 104 213
4 61 60 104 213
4 59 227 226 228
4 274 110 227 225
4 246 36 247 37
4 246 36 35 52
4 52 115 40 31
4 28 31 38 40
4 44 42 158 45
4 120 44 122 158
4 135 133 140 173
4 171 16 173 140
4 171 144 153 140
4 141 144 140 153
4 10 141 15 153
4 10 12 15 13
4 10 8 12 13
4 8 10 12 11
4 8 9 11 255
4 9 253 149 252
4 257 262 149 252
4 262 259 149 7
4 258 7 4 260
4 259 258 7 262
4 262 0 7 252
4 0 6 7 252
4 254 6 252 255
4 0 3 6 252
4 6 3 254 252
4 272 6 11 7
4 4 6 272 7
4 4 6 2 272
4 9 6 11 255
4 9 253 252 255
4 262 264 257 149
4 257 264 275 271
4 259 264 262 149
4 257 264 271 149
4 9 146 7 149
4 10 7 11 9
4 7 12 10 11
4 145 150 153 12
4 12 145 10 153
4 145 146 10 141
4 145 142 147 146
4 171 145 153 144
4 171 142 145 144
4 142 171 145 167
4 142 145 147 167
4 167 145 147 251
4 145 260 7 251
4 145 150 12 7
4 12 145 7 10
4 12 152 153 14
4 152 153 14 130
4 152 151 153 165
4 165 152 276 270
4 152 151 165 276
4 165 152 270 130
4 152 151 276 150
4 276 150 151 273
4 272 7 11 150
4 7 12 11 150
4 153 150 152 12
4 165 16 153 130
4 165 152 130 153
4 15 12 153 14
4 13 131 14 15
4 17 131 15 14
4 17 132 18 19
4 25 24 163 20
4 25 24 118 163
4 119 156 164 118
4 118 117 45 156
4 155 45 117 156
4 113 40 117 155
4 50 49 224 48
4 49 50 224 51
4 50 237 224 51
4 237 50 175 51
4 52 54 220 174
4 52 247 220 54
4 39 247 220 52
4 39 247 52 36
4 115 52 35 31
4 40 115 52 113
4 40 115 113 117
4 115 112 113 114
4 53 52 51 54
4 54 53 109 55
4 52 53 109 54
4 110 246 109 54
4 247 110 54 246
4 247 110 274 225
4 246 274 37 247
4 247 110 246 274
4 110 225 54 57
4 57 217 226 219
4 57 217 218 230
4 219 218 54 57
4 218 54 174 220
4 46 39 52 40
4 39 31 52 40
4 38 42 45 40
4 28 38 44 45
4 121 25 44 119
4 123 135 173 133
4 134 153 140 16
4 134 16 140 133
4 137 135 134 140
4 134 153 141 140
4 134 153 16 17
4 16 17 19 134
4 134 153 17 141
4 153 145 10 141
4 6 9 11 7
4 258 7 0 4
4 1 0 2 5

CELL_TYPES 734
10
10
10
10
10
10
10
10
10
10
10
10
10
10
10
10
10
10
10
10
10
10
10
10
10
10
10
10
10
10
10
10
10
10
10
10
10
10
10
10
10
10
10
10
10
10
10
10
10
10
10
10
10
10
10
10
10
10
10
10
10
10
10
10
10
10
10
10
10
10
10
10
10
10
10
10
10
10
10
10
10
10
10
10
10
10
10
10
10
10
10
10
10
10
10
10
10
10
10
10
10
10
10
10
10
10
10
10
10
10
10
10
10
10
10
10
10
10
10
10
10
10
10
10
10
10
10
10
10
10
10
10
10
10
10
10
10
10
10
10
10
10
10
10
10
10
10
10
10
10
10
10
10
10
10
10
10
10
10
10
10
10
10
10
10
10
10
10
10
10
10
10
10
10
10
10
10
10
10
10
10
10
10
10
10
10
10
10
10
10
10
10
10
10
10
10
10
10
10
10
10
10
10
10
10
10
10
10
10
10
10
10
10
10
10
10
10
10
10
10
10
10
10
10
10
10
10
10
10
10
10
10
10
10
10
10
10
10
10
10
10
10
10
10
10
10
10
10
10
10
10
10
10
10
10
10
10
10
10
10
10
10
10
10
10
10
10
10
10
10
10
10
10
10
10
10
10
10
10
10
10
10
10
10
10
10
10
10
10
10
10
10
10
10
10
10
10
10
10
10
10
10
10
10
10
10
10
10
10
10
10
10
10
10
10
10
10
10
10
10
10
10
10
10
10
10
10
10
10
10
10
10
10
10
10
10
10
10
10
10
10
10
10
10
10
10
10
10
10
10
10
10
10
10
10
10
10
10
10
10
10
10
10
10
10
10
10
10
10
10
10
10
10
10
10
10
10
10
10
10
10
10
10
10
10
10
10
10
10
10
10
10
10
10
10
10
10
10
10
10
10
10
10
10
10
10
10
10
10
10
10
10
10
10
10
10
10
10
10
10
10
10
10
10
10
10
10
10
10
10
10
10
10
10
10
10
10
10
10
10
10
10
10
10
10
10
10
10
10
10
10
10
10
10
10
10
10
10
10
10
10
10
10
10
10
10
10
10
10
10
10
10
10
10
10
10
10
10
10
10
10
10
10
10
10
10
10
10
10
10
10
10
10
10
10
10
10
10
10
10
10
10
10
10
10
10
10
10
10
10
10
10
10
10
10
10
10
10
10
10
10
10
10
10
10
10
10
10
10
10
10
10
10
10
10
10
10
10
10
10
10
10
10
10
10
10
10
10
10
10
10
10
10
10
10
10
10
10
10
10
10
10
10
10
10
10
10
10
10
10
10
10
10
10
10
10
10
10
10
10
10
10
10
10
10
10
10
10
10
10
10
10
10
10
10
10
10
10
10
10
10
10
10
10
10
10
10
10
10
10
10
10
10
10
10
10
10
10
10
10
10
10
10
10
10
10
10
10
10
10
10
10
10
10
10
10
10
10
10
10
10
10
10
10
10
10
10
10
10
10
10
10
10
10
10
10
10
10
10
10
10
10
10
10
10
10
10
10
10
10
10
10
10
10
10
10
10
10
10
10
10
10
10
10
10
10
10
10
10
10
10
10
10
10
10
10
10
10
10
10
10
10
10
10
10
10
10
10
10
10
10
10
10
10
10
10
10
10
10
10
10
10
10
10
10
10
10
10
10
10
10
10
10
10

CELL_DATA 734
SCALARS potentialEnergy FLOAT 1
LOOKUP_TABLE default
36.937929
34.837341
44.904926
51.903812
84.477760
85.217087
44.546825
78.431595
130.578270
122.086929
57.482712
39.306776
159.318390
38.759598
93.052116
119.841118
59.976250
72.158489
130.522644
229.515869
222.759888
96.028038
68.115952
32.910692
129.389114
78.292862
222.341583
75.029083
98.490936
67.549343
84.633110
44.274857
52.014618
54.384937
37.244375
117.898605
39.851149
26.513546
40.435362
61.695538
95.396454
156.538956
255.110947
132.557808
41.378042
151.320694
117.657494
69.825756
27.529774
41.119656
58.416813
55.278500
40.067833
31.580608
25.092906
133.593742
138.148117
94.166641
46.449944
123.249359
77.615730
273.708740
67.441898
217.931244
110.119629
85.470016
122.597054
156.937897
99.425385
387.730896
98.944153
105.176529
115.318901
87.404053
52.930981
52.792042
56.560917
82.535851
158.065781
112.995575
136.742027
253.033691
133.502983
53.066826
320.675293
103.563774
191.864349
151.951111
129.057480
105.387741
27.968435
192.327408
225.681961
86.730179
57.838806
95.636665
52.617561
56.799248
164.810898
114.770081
104.254448
173.875092
108.247643
104.025345
85.237717
102.319183
227.934998
242.095413
251.397568
295.238495
86.309731
176.234543
72.738480
87.515656
69.247913
67.948860
43.960133
83.194107
206.553131
191.885071
205.915558
39.078291
47.547882
86.709984
111.044685
30.691307
34.614094
228.451294
197.766388
85.604843
70.601673
114.118088
78.472931
49.863148
76.402000
44.197990
53.880440
32.699759
146.805847
66.745903
56.088654
36.739120
149.010086
174.668961
44.328899
135.219193
28.017855
31.692610
130.672684
22.503022
71.404144
211.133575
109.417664
130.389931
78.247475
53.821861
54.227036
46.880421
56.911568
25.189235
25.319617
33.147562
33.776049
66.678440
27.689680
44.890419
45.811214
25.048106
27.849806
29.216896
29.965258
33.703585
50.885433
87.609230
63.854851
76.514244
23.372032
22.233932
56.574459
255.334656
65.274273
35.333725
125.986519
64.610245
86.849648
96.936592
54.932716
16.523118
61.132702
59.301666
87.739067
73.854198
88.957916
148.812378
117.384186
26.654587
63.012608
91.730904
81.021004
68.836437
44.586369
79.679337
118.467926
56.069935
116.642509
28.276236
86.453468
39.653679
68.281563
145.445770
55.040886
54.747089
29.125088
128.834053
55.662407
98.466972
32.504143
100.832840
71.731922
80.026199
44.688530
109.062881
92.802513
177.691422
68.529575
112.816498
142.883438
109.810410
149.903976
102.505219
97.405067
100.953728
89.206795
98.703316
371.042267
129.170174
119.500473
96.420959
325.060303
160.598984
79.605515
144.595413
97.868141
135.764053
120.065300
54.676964
136.752335
122.334930
34.775406
55.052044
80.440414
99.777740
82.280624
158.190811
80.799332
128.019356
98.386749
123.785385
175.514099
222.495453
55.370415
26.681795
104.906158
173.831253
210.174347
106.797897
205.448746
278.832520
507.741425
105.991096
54.471405
300.598450
89.525276
121.592438
91.347282
23.400522
40.793282
31.737396
34.521114
43.517517
83.165367
144.067184
55.122829
56.231091
54.544327
52.286129
43.132298
95.184135
98.964935
336.903534
141.245041
110.820007
64.387894
132.605339
85.815773
58.068203
80.528778
57.993019
80.717896
93.339157
68.507217
122.022926
128.269142
190.661591
100.011719
52.412655
27.400171
115.740425
191.472458
95.740601
187.902878
53.288921
25.451739
84.671684
92.154411
25.014136
56.551414
112.004547
64.356476
173.467163
146.660919
118.573006
44.270519
82.510963
237.032822
75.245689
97.554352
75.599876
152.049438
153.871811
31.695534
39.006491
66.936913
100.434616
20.386980
54.394070
53.663639
75.096603
23.617547
55.268181
35.995920
79.716858
48.688816
20.879670
117.983078
51.024712
27.923176
53.373276
86.160934
50.267319
30.130116
61.450077
62.053249
132.780266
242.625153
168.778641
48.773235
78.710693
45.191086
30.319244
125.252235
230.879089
54.240898
61.085480
83.615822
89.321495
109.979172
35.756611
39.734377
86.767136
112.734573
281.351044
63.543701
208.739502
223.686356
194.149567
61.884686
53.683128
94.941574
21.008493
64.821587
172.576401
196.407242
174.106995
141.362183
110.395866
62.634594
283.989349
102.948875
133.231949
187.750549
150.820023
107.613373
148.234009
103.449188
153.816116
306.783600
467.436371
191.108673
120.639374
85.863747
19.450441
186.768433
131.728729
59.967289
43.196247
72.976131
164.226868
141.731247
320.653046
247.373230
76.736084
55.090237
79.933220
211.418365
175.227661
134.495216
54.294064
47.120575
32.315601
139.913010
107.217003
35.789402
84.233505
180.838196
82.932190
130.651146
371.114166
95.299583
93.432632
73.947422
243.182846
235.042755
359.485748
99.693230
71.851974
121.701019
98.436447
66.770370
19.278298
37.379202
312.378601
291.646423
32.759439
136.632919
96.421326
164.053940
118.202354
74.833679
101.825401
70.926327
32.970299
50.317951
95.785568
43.236286
16.016862
39.201330
34.184769
133.243553
224.111160
100.837730
50.474743
68.032398
58.047600
95.540672
118.504372
38.577400
94.748207
112.803688
120.881462
59.673466
27.579226
65.029629
114.973267
93.386314
137.519768
145.727783
34.517939
158.296967
102.937515
117.870056
205.948135
352.603149
61.035522
77.133148
75.431694
100.135620
52.228977
52.669838
42.783268
39.286646
33.560608
61.058899
56.095779
201.161758
93.203079
50.176201
130.674515
48.547096
62.594681
91.064201
36.228451
41.339525
40.669195
94.026573
174.937897
78.469154
39.446341
154.886658
163.660049
275.379730
81.598358
258.496048
253.392868
324.773102
73.994816
19.351383
24.823647
68.139915
47.024868
26.567966
111.908707
98.241074
246.093887
309.055420
122.338593
265.655502
102.675911
228.859406
142.094086
94.360222
184.260910
199.732132
96.185760
57.190624
74.924957
88.576462
123.954491
73.254124
56.661781
57.034973
141.410110
95.969940
19.787873
59.113125
51.113834
78.395981
82.072350
56.497070
36.058393
125.123772
93.276718
25.114431
107.541084
103.359596
56.786488
28.520500
148.419250
87.925415
25.246943
147.289764
99.591728
40.790552
187.960800
50.355190
195.079086
116.621620
132.082771
23.952677
23.841594
38.129131
279.039276
90.819748
77.888382
113.691460
101.189171
264.171204
155.462845
113.545609
196.579803
167.188904
148.088699
47.913208
90.736214
74.580696
173.848007
103.072083
62.267059
99.855621
84.714172
344.082886
167.927872
275.685699
179.924393
203.193924
193.578781
137.450821
119.727501
75.959030
153.792358
165.998489
293.090973
99.842125
74.100388
94.558472
36.548906
78.312912
105.653152
165.945190
121.895737
25.428544
41.279003
161.051010
58.705982
56.117832
25.046104
93.985771
40.291033
116.566170
197.172363
34.346592
93.240273
113.990265
109.736969
183.358994
55.620132
137.586365
91.586075
24.093908
92.519798
56.078903
67.476795
155.590027
88.520073
243.503632
56.417793
24.569320
51.192936
35.072565
81.310455
46.293896
47.379818
96.165466
318.815033
307.668762
117.729446
101.693550
232.521454
244.457657
78.862251
24.857800
225.477249
43.343365
113.403297
232.151535
212.348663
138.280533
68.825146
84.984497
93.179031
341.409515
84.145134
179.834427
129.954369
166.693375
202.272736
271.687256
135.133987
143.230881
68.038864
45.000187
52.715313
38.456228
71.850708
18.506385
109.677811
167.680283
135.776695
77.675423
104.447266
29.476391
30.675385
171.446320
31.986258
122.152237
42.732967
257.214020
334.489624
118.473686
71.839470
74.483131
63.687305
16.673091
15.185536
67.179726
24.714970
170.872818
69.907799
65.278099
80.986176
222.006882
75.492134
111.203201
79.254875
155.241211
205.656693
356.507202
411.559937
378.448059
147.497879
72.179771
163.523285
117.262367
59.107372
131.943489
29.865961
139.474350
40.858320
62.196629
66.436993
187.511154
269.484283
91.688858
71.855896
311.527039
172.122406
32.256042
29.184008
95.638077
54.518803
87.012589
358.249542
60.830330
31.163055

