# vtk DataFile Version 3.1
Tetrahedral Mesh Visualization
ASCII
DATASET UNSTRUCTURED_GRID

POINTS 277 FLOAT
0.000000 1.378113 1.754166
0.000000 0.000000 0.000000
1.998851 -0.001803 -0.005532
0.000000 1.666667 0.000000
2.419113 -0.004963 1.728219
0.000000 0.000000 1.666667
1.693130 2.465369 -0.006400
2.998239 2.454098 2.310393
3.997782 5.010246 -0.009636
3.077656 5.000430 1.640656
5.214014 5.006428 1.589658
3.489125 3.186204 -0.012378
5.405993 3.313155 -0.024018
6.007943 5.008090 -0.014470
7.364576 3.329757 -0.014564
6.972820 4.998581 1.314494
9.244916 2.168833 2.014544
8.693890 4.992205 1.612918
9.343953 3.335312 -0.011315
10.655208 4.999003 1.656792
11.345357 3.360394 -0.010320
11.109003 1.879770 1.537229
10.673238 1.688029 -0.016821
12.679313 1.707163 -0.017170
13.357806 3.367457 -0.004172
12.977425 1.901958 1.475938
14.692014 1.703057 -0.007288
14.017035 0.043017 -0.028337
15.480719 2.161436 1.689137
15.342113 0.025799 1.635150
13.335621 0.028539 1.632598
17.299515 0.014331 1.624146
16.706739 1.689826 0.013040
18.036572 0.019794 0.033893
16.024128 0.029959 -0.008735
18.724804 1.668085 0.066828
19.021629 -0.007695 1.382329
20.053875 -0.009335 0.098545
16.722374 0.002777 3.311522
18.976168 -0.019915 3.166423
17.699987 2.687101 2.990588
17.934631 -0.022790 5.039941
16.635101 1.662904 5.024179
15.956130 -0.006713 4.999813
14.679795 0.006666 3.303437
15.765363 2.897699 3.362833
18.667099 1.674222 5.066808
17.265211 3.337747 5.041535
19.225605 3.361440 5.093169
19.325697 4.976897 3.440070
20.932972 3.629035 5.158560
21.321192 4.962301 3.520099
19.632273 2.471308 2.447680
20.699013 4.973919 1.826273
21.912571 2.476856 2.661839
22.697851 4.958619 1.892755
23.363667 3.354151 0.234783
23.976519 2.399718 2.549489
25.077490 3.631302 0.294594
25.067543 1.841045 0.289439
26.005182 2.437293 2.055331
27.334145 1.633745 0.351439
26.783882 3.326835 0.347868
29.286665 -0.076456 2.000999
28.068583 -0.068352 0.355314
29.379450 1.603967 0.404420
31.004463 -0.071871 1.738073
32.059418 -0.067115 0.442818
31.374353 1.599432 0.445361
30.061548 -0.064954 0.395309
33.338371 1.592442 0.489544
34.067867 -0.049392 0.482575
32.692844 -0.080982 2.066485
34.606438 -0.067351 2.183089
34.982437 2.324881 3.079610
36.514412 -0.075322 2.365499
35.104797 -0.101093 3.894070
36.782734 -0.101870 4.102753
38.196320 2.415066 5.653859
37.682812 2.085461 2.812994
38.284225 -0.086680 3.154014
38.063690 -0.042109 0.611038
37.899757 -0.108810 5.608326
35.919212 -0.116438 5.535307
36.469070 1.637557 5.574352
34.847672 1.210686 5.519156
34.769695 3.015416 5.547319
36.669022 3.378443 5.608221
33.926529 4.880564 5.546253
32.619587 3.172295 5.498319
33.244995 4.899714 3.874829
31.933533 4.874853 5.491460
35.121834 4.911886 3.966279
32.198200 2.505369 2.910940
34.605904 4.924317 2.250364
32.698772 3.259600 0.494495
33.175972 -0.101722 3.777822
30.952650 -0.090505 3.532959
31.232876 1.537296 5.452584
33.167931 1.478662 5.491162
30.593447 3.214805 5.458089
28.588202 3.232244 5.410581
29.245852 1.563513 5.407399
30.012800 2.420640 2.909956
27.959103 2.410140 2.861382
26.589497 3.247196 5.338956
27.240891 1.570371 5.346179
24.697506 4.943625 1.953528
22.083345 4.972905 0.208669
21.405422 3.319271 0.170893
22.798653 1.667528 0.216586
20.078955 4.983806 0.138884
19.400625 3.323533 0.100651
18.693262 4.983343 1.753444
18.067234 5.001433 0.077040
17.383602 3.344866 0.037370
16.045181 5.016150 0.030483
16.684130 5.004809 1.700980
14.675292 5.016998 1.675772
13.690037 2.969526 3.261513
12.972278 1.323645 4.975855
12.664724 0.010448 3.298082
13.969405 -0.000710 4.972032
11.256356 1.601411 4.981220
10.657004 -0.004865 3.303914
11.985153 -0.011098 4.967056
9.987494 -0.019357 4.970263
11.327355 0.021452 1.633476
9.302512 -0.001225 1.645693
9.998460 0.016753 -0.026746
8.681617 1.663256 -0.018374
8.005245 5.000558 -0.003503
9.999875 5.008440 0.001335
11.213242 2.639722 3.271301
9.249317 4.983582 3.305737
10.719588 3.297445 4.990309
11.306390 4.994611 3.322673
9.985328 4.983210 4.999134
11.980672 4.997241 4.992987
7.985526 4.977016 4.995786
8.719509 3.364402 4.991083
6.961277 4.991122 3.104157
5.350970 3.363268 4.983608
5.993940 4.992098 4.991534
7.017711 3.662196 4.992604
5.135878 2.370425 3.114045
4.623989 5.002606 3.274055
3.487111 3.196581 4.986041
4.001712 5.003997 4.988949
2.369162 4.996706 3.276643
4.835749 1.613839 -0.023577
4.895434 -0.002109 1.848528
6.719946 1.655389 -0.019323
7.005396 2.555268 2.174209
8.642362 -0.012339 3.313069
17.325701 5.006139 3.379414
15.328855 5.013394 3.348135
15.964399 5.009347 5.028409
14.680525 1.612765 4.994083
15.228532 3.308856 5.012504
12.009254 0.040015 -0.033697
15.371500 3.358750 0.014988
14.028811 5.027912 0.008750
12.663498 5.011658 1.664095
13.323537 5.006309 3.330521
7.232072 -0.007060 1.666517
6.660344 -0.012994 3.351692
4.903716 1.645391 4.981438
5.985988 -0.018316 4.970492
4.910791 -0.001859 3.637293
3.998158 0.000835 4.983874
7.030985 1.866093 4.983165
7.985289 -0.022178 4.973376
9.260477 1.669023 4.978348
20.917984 1.838813 5.145483
22.639923 3.332834 5.213352
23.945368 4.928428 5.269121
24.593859 3.264402 5.278241
23.322542 4.948628 3.579589
27.318794 4.918275 3.708517
26.694944 4.927735 2.019902
25.320066 4.932305 3.643351
35.225212 1.563045 0.537945
36.901943 1.413301 0.584815
39.943283 3.154444 4.338568
39.972523 1.547878 3.312028
38.295803 4.921516 3.220821
40.001881 3.176070 2.613194
39.964489 4.908710 4.074599
37.916519 4.892825 5.685270
39.917522 4.890208 5.744203
39.902580 3.226045 5.719100
39.896069 1.563832 5.717192
39.942226 -0.095784 4.030406
40.004139 -0.065198 2.361213
40.065701 -0.044256 0.700910
40.060997 1.624148 0.711862
40.055996 3.291030 0.717680
38.368954 2.428790 0.656996
38.070618 4.969810 0.689163
40.024849 4.926942 2.411189
36.799297 4.918189 4.178412
36.523628 4.932270 2.446075
36.578098 3.139851 0.599748
36.062595 4.957520 0.614514
34.657894 3.252639 0.537932
34.056416 4.942710 0.540834
30.719774 3.266820 0.448318
30.064577 4.930082 0.436676
32.062538 4.931212 0.491691
30.674866 4.919587 2.124318
28.731941 3.271400 0.396218
26.686224 -0.088143 3.702583
27.279976 -0.069264 2.025310
25.233519 1.591218 5.289379
23.906925 -0.065707 5.240956
25.909872 -0.089869 5.296638
24.952917 -0.068079 3.947282
23.180826 1.635135 5.224961
23.238470 -0.047337 3.598105
21.228975 -0.037114 3.451173
21.912226 -0.058007 5.164937
19.911760 -0.047095 5.091297
17.956030 4.995255 5.063492
19.942158 4.959564 5.134366
22.743088 -0.038672 1.891529
25.004877 -0.057772 2.157241
24.057566 -0.042747 0.246355
26.061127 -0.050275 0.304306
26.086561 4.937148 0.328673
25.667791 2.157953 3.794628
28.689369 4.917499 2.076985
28.075886 4.932567 0.391643
25.940218 4.913419 5.333333
12.011804 5.029401 0.005895
12.974761 3.113804 4.989537
13.975595 5.010156 5.003527
21.941061 4.944066 5.204786
28.700224 -0.092667 3.687146
29.304186 4.908873 3.768634
29.937061 4.892416 5.448368
31.288284 4.896778 3.811455
31.924036 -0.119953 5.437338
33.923698 -0.129840 5.479483
35.916630 4.894382 5.600282
32.652954 4.913991 2.179034
20.750357 1.651538 0.132324
20.740044 -0.025113 1.734744
24.082695 4.950613 0.259621
27.935354 4.905998 5.398411
40.071217 4.967543 0.759619
3.182996 1.470267 4.988721
0.000000 3.103853 1.750106
0.000000 5.000000 1.666667
0.000000 3.333333 0.000000
2.001833 4.997325 -0.003491
0.000000 5.000000 0.000000
0.000000 5.000000 3.333333
0.000000 0.000000 3.333333
1.697540 2.466398 4.993222
3.039153 0.002397 3.379706
2.000038 -0.002959 4.992652
0.000000 2.403264 3.370902
0.000000 1.666667 5.000000
0.000000 3.333333 5.000000
0.000000 0.000000 5.000000
27.910875 -0.095826 5.354047
29.916489 -0.104051 5.402270
36.061516 -0.043978 0.533377
39.898842 -0.107039 5.692300
7.996156 -0.002294 -0.024388
2.000077 4.995286 5.000126
3.158559 1.458670 -0.015933
3.991573 0.006434 -0.027903
22.064537 -0.026950 0.173935
0.000000 5.000000 5.000000
5.990203 0.008329 -0.029603

CELLS 734 3670
4 0 1 2 3
4 0 4 2 5
4 0 3 2 6
4 4 6 0 2
4 4 6 7 0
4 8 9 10 11
4 12 13 14 15
4 16 17 14 18
4 19 20 18 21
4 20 22 21 23
4 24 25 26 23
4 25 27 26 23
4 26 28 29 30
4 28 29 31 32
4 33 34 32 31
4 31 33 35 32
4 31 33 36 35
4 33 37 36 35
4 38 39 40 31
4 41 42 43 38
4 44 42 45 38
4 44 42 38 43
4 46 38 42 41
4 46 47 40 48
4 49 50 51 52
4 53 54 51 55
4 56 54 55 57
4 56 58 59 57
4 60 59 61 62
4 63 61 64 65
4 66 67 68 69
4 67 70 71 72
4 73 74 75 76
4 74 77 75 76
4 77 78 79 80
4 79 81 75 80
4 77 78 80 82
4 77 83 76 84
4 83 85 76 84
4 85 86 74 84
4 74 86 87 84
4 88 89 86 90
4 91 89 88 90
4 86 88 90 92
4 90 86 92 74
4 86 89 74 90
4 93 94 95 74
4 70 74 72 93
4 70 73 71 72
4 74 96 73 72
4 66 97 93 72
4 96 97 72 93
4 96 98 97 93
4 85 96 74 99
4 96 98 93 99
4 98 89 100 93
4 101 102 100 103
4 104 105 101 106
4 107 58 57 60
4 58 107 57 56
4 53 108 109 55
4 56 110 109 54
4 53 111 109 108
4 112 53 109 52
4 111 112 113 53
4 112 111 113 114
4 115 116 114 117
4 40 28 115 117
4 45 117 118 28
4 119 28 25 44
4 120 44 121 122
4 123 121 124 125
4 125 123 126 124
4 127 128 21 124
4 16 129 128 21
4 16 18 14 130
4 16 17 18 19
4 131 17 132 18
4 16 19 18 21
4 133 16 19 134
4 135 134 133 136
4 135 137 136 138
4 137 134 139 140
4 141 142 143 144
4 145 146 147 7
4 142 148 147 146
4 7 146 147 149
4 10 7 9 146
4 145 150 7 151
4 152 151 150 153
4 16 128 154 124
4 124 21 121 133
4 25 28 30 44
4 28 38 45 40
4 45 47 40 42
4 155 45 156 47
4 157 156 47 155
4 155 45 40 117
4 45 42 158 159
4 44 42 43 158
4 119 45 158 159
4 120 44 158 119
4 25 127 21 121
4 25 27 160 30
4 127 25 160 30
4 25 127 121 30
4 44 25 121 30
4 28 30 44 29
4 119 28 44 45
4 119 28 118 25
4 28 24 26 161
4 26 32 29 28
4 28 31 29 38
4 46 38 41 39
4 46 38 39 40
4 28 117 40 45
4 118 28 117 161
4 162 24 118 161
4 118 119 163 164
4 136 119 164 163
4 25 133 21 163
4 128 16 21 124
4 165 166 153 154
4 166 167 168 169
4 167 168 169 170
4 171 168 172 166
4 124 173 126 154
4 123 121 133 124
4 120 125 122 121
4 122 158 44 43
4 47 46 40 42
4 52 50 174 48
4 175 50 174 54
4 176 175 177 178
4 179 60 180 181
4 64 69 63 65
4 68 72 67 66
4 70 73 182 71
4 74 79 183 75
4 184 78 185 79
4 79 184 186 187
4 186 184 188 187
4 184 189 190 191
4 184 78 79 186
4 78 189 184 191
4 189 184 190 188
4 184 78 191 192
4 184 78 192 185
4 192 78 80 185
4 193 80 194 185
4 195 81 196 194
4 81 79 196 194
4 197 187 196 198
4 187 79 185 196
4 79 184 187 185
4 197 199 187 198
4 199 197 187 200
4 199 200 187 186
4 78 201 79 186
4 189 201 87 78
4 202 201 79 74
4 201 74 92 87
4 201 202 92 74
4 201 202 79 186
4 202 203 74 79
4 202 198 203 79
4 204 202 199 203
4 202 203 205 74
4 202 204 205 203
4 182 203 74 205
4 74 203 183 79
4 79 203 183 198
4 79 81 198 183
4 81 79 198 196
4 187 79 196 198
4 202 198 79 186
4 202 204 94 205
4 94 95 205 206
4 207 208 209 210
4 208 207 211 210
4 104 103 211 65
4 104 60 212 213
4 214 215 216 217
4 218 219 220 221
4 222 174 220 221
4 46 39 222 174
4 52 46 40 48
4 40 49 52 48
4 53 49 52 113
4 40 49 155 113
4 155 45 47 40
4 157 47 223 155
4 49 223 224 48
4 52 50 51 54
4 175 54 57 178
4 218 175 54 57
4 225 219 54 57
4 218 175 57 177
4 57 217 219 218
4 219 225 226 57
4 225 227 226 57
4 59 110 57 227
4 59 60 61 228
4 61 60 213 228
4 64 61 213 228
4 63 61 213 64
4 61 104 211 65
4 180 60 104 62
4 58 229 62 180
4 58 60 180 62
4 60 61 104 62
4 60 226 230 212
4 226 60 213 212
4 60 104 212 230
4 179 60 230 104
4 104 211 231 62
4 180 229 62 232
4 180 232 62 231
4 179 60 104 180
4 233 181 105 179
4 181 105 179 230
4 105 214 106 230
4 105 214 230 177
4 215 214 218 217
4 215 217 218 219
4 218 215 219 221
4 218 175 174 54
4 39 52 220 174
4 39 46 52 174
4 115 52 112 35
4 28 115 117 161
4 162 118 116 161
4 24 162 118 163
4 20 19 234 163
4 25 133 163 119
4 120 119 158 235
4 236 119 235 159
4 235 119 158 159
4 119 235 133 136
4 138 235 236 164
4 45 47 42 159
4 46 38 40 42
4 49 50 52 48
4 237 175 176 178
4 181 233 177 176
4 180 179 231 104
4 207 103 65 211
4 207 103 68 65
4 65 66 103 68
4 103 66 97 93
4 66 103 97 63
4 213 104 63 238
4 238 97 103 63
4 104 102 103 238
4 104 106 212 230
4 214 212 106 230
4 214 212 216 106
4 214 212 217 216
4 214 212 230 217
4 226 217 230 212
4 226 60 230 57
4 181 60 57 230
4 179 105 104 230
4 179 105 101 104
4 104 239 103 101
4 239 101 240 100
4 91 241 240 100
4 241 239 240 100
4 239 241 103 100
4 103 210 93 241
4 103 207 93 210
4 210 103 231 239
4 103 239 104 231
4 103 104 63 65
4 65 66 63 103
4 65 66 68 69
4 68 72 66 93
4 96 98 242 97
4 85 96 99 243
4 85 86 99 74
4 86 89 99 74
4 88 86 244 92
4 74 86 92 87
4 201 244 87 92
4 244 86 87 92
4 90 74 92 94
4 94 95 206 245
4 95 209 206 245
4 245 207 95 209
4 208 232 231 211
4 180 104 231 62
4 181 60 107 57
4 54 175 51 178
4 50 52 174 54
4 246 36 52 247
4 246 36 37 35
4 52 31 36 35
4 31 39 52 36
4 39 46 222 41
4 39 222 174 220
4 174 218 220 221
4 218 219 54 220
4 225 219 220 54
4 56 110 54 57
4 110 56 59 57
4 60 59 226 228
4 60 226 213 228
4 57 217 230 226
4 214 217 230 218
4 218 57 230 177
4 181 105 230 177
4 179 60 181 230
4 58 107 180 60
4 229 107 58 248
4 229 107 180 58
4 60 58 59 62
4 58 107 56 248
4 108 56 109 55
4 108 56 55 248
4 107 56 55 57
4 107 181 57 178
4 57 181 177 178
4 181 176 177 178
4 233 181 177 105
4 249 239 101 240
4 91 89 241 100
4 89 91 241 90
4 210 245 93 241
4 245 241 90 93
4 93 94 90 245
4 74 202 92 94
4 205 204 94 206
4 202 198 199 203
4 202 198 186 199
4 199 197 200 250
4 199 186 187 198
4 200 186 188 187
4 184 189 186 188
4 201 189 87 244
4 189 201 78 186
4 201 78 79 87
4 189 78 184 186
4 186 79 187 198
4 74 201 79 87
4 74 79 84 87
4 79 78 84 87
4 77 78 84 79
4 74 77 84 79
4 74 85 84 76
4 83 243 76 85
4 85 96 243 76
4 73 96 74 76
4 96 93 74 99
4 89 93 99 74
4 93 94 74 90
4 93 94 245 95
4 207 95 68 93
4 95 70 68 93
4 95 70 74 205
4 74 70 182 205
4 94 95 74 205
4 241 89 90 93
4 104 179 231 239
4 181 60 180 107
4 107 57 55 178
4 57 54 55 178
4 53 49 51 52
4 40 49 113 52
4 155 47 223 48
4 45 47 159 156
4 119 156 45 159
4 120 44 119 121
4 16 173 124 154
4 166 167 169 145
4 145 7 147 251
4 9 7 252 149
4 253 254 252 255
4 256 253 255 254
4 6 9 252 255
4 253 257 149 252
4 7 258 259 260
4 260 261 251 170
4 169 260 251 170
4 169 251 167 170
4 166 167 145 171
4 16 22 18 130
4 25 24 20 23
4 24 25 118 28
4 119 156 118 45
4 119 28 45 118
4 119 45 44 158
4 44 38 28 29
4 25 28 26 30
4 25 24 26 28
4 24 20 234 163
4 162 24 234 163
4 163 119 118 25
4 235 135 133 136
4 135 134 140 133
4 145 141 153 144
4 145 260 169 151
4 0 258 4 5
4 259 258 262 263
4 264 259 262 263
4 258 7 262 0
4 260 258 259 261
4 258 261 263 259
4 261 258 263 265
4 261 260 251 259
4 167 251 169 145
4 145 260 251 169
4 166 167 171 168
4 16 171 153 140
4 137 135 136 134
4 138 135 235 136
4 235 138 136 164
4 236 119 156 164
4 157 156 159 47
4 155 47 48 40
4 40 49 48 155
4 46 52 174 48
4 247 225 220 54
4 110 225 57 227
4 60 59 57 226
4 104 61 211 62
4 232 211 62 231
4 103 104 211 231
4 239 210 103 241
4 241 93 103 100
4 68 72 93 70
4 103 207 68 93
4 207 103 211 210
4 210 208 231 211
4 103 210 231 211
4 245 207 210 93
4 245 207 209 210
4 245 207 93 95
4 70 95 74 93
4 70 73 74 182
4 182 203 183 74
4 202 74 205 94
4 93 89 90 74
4 89 241 100 93
4 93 98 103 100
4 101 104 102 103
4 104 101 102 106
4 106 238 104 212
4 266 216 212 106
4 106 238 212 266
4 106 238 102 104
4 267 266 238 102
4 97 102 267 238
4 106 238 266 102
4 97 102 238 103
4 97 102 103 98
4 97 102 98 267
4 97 98 242 267
4 96 98 99 242
4 89 98 99 93
4 239 101 100 103
4 104 179 239 101
4 179 249 239 101
4 105 179 101 249
4 233 105 249 179
4 177 181 57 230
4 175 57 177 178
4 175 237 51 178
4 55 54 51 178
4 112 111 109 53
4 112 53 52 113
4 117 115 113 114
4 116 118 117 161
4 115 116 117 161
4 28 115 161 32
4 29 32 26 34
4 26 30 29 27
4 34 26 29 27
4 29 34 31 32
4 31 115 32 35
4 31 115 28 32
4 246 112 52 35
4 246 247 52 54
4 247 110 225 54
4 59 227 57 226
4 213 104 238 212
4 104 103 63 238
4 97 98 103 93
4 70 73 72 74
4 71 182 268 73
4 182 75 268 73
4 182 75 183 268
4 183 81 268 75
4 182 75 74 183
4 79 81 183 75
4 79 81 80 194
4 78 192 80 82
4 192 193 80 82
4 269 193 192 82
4 193 192 80 185
4 80 79 194 185
4 77 74 75 79
4 85 96 76 74
4 96 243 242 99
4 98 102 103 100
4 104 105 106 230
4 214 218 230 177
4 50 175 51 54
4 49 155 223 48
4 157 156 236 159
4 236 119 159 156
4 235 119 164 136
4 236 119 164 235
4 133 235 120 123
4 120 235 133 119
4 135 123 235 133
4 124 173 123 126
4 173 172 126 154
4 166 171 154 172
4 172 171 154 173
4 171 16 154 173
4 171 166 154 153
4 16 171 154 153
4 124 173 16 133
4 124 173 133 123
4 25 133 119 121
4 19 16 133 21
4 163 19 133 21
4 134 19 133 136
4 133 119 136 163
4 133 19 163 136
4 132 20 18 19
4 20 132 234 19
4 20 19 163 21
4 22 20 21 18
4 16 22 21 18
4 128 129 127 21
4 160 129 21 127
4 160 21 25 127
4 25 20 21 23
4 25 27 23 160
4 25 27 30 26
4 23 22 21 160
4 16 129 21 22
4 128 130 165 270
4 128 130 270 129
4 128 130 16 165
4 16 165 153 154
4 17 16 14 153
4 131 17 18 14
4 17 141 153 15
4 12 10 15 153
4 15 17 14 153
4 153 16 14 130
4 16 129 22 130
4 128 130 129 16
4 16 128 165 154
4 151 166 153 165
4 260 145 7 151
4 9 6 252 7
4 7 262 252 149
4 260 259 7 251
4 7 259 147 251
4 264 259 271 149
4 259 7 147 149
4 146 148 147 149
4 271 259 147 149
4 148 271 147 149
4 146 142 143 141
4 144 141 140 139
4 141 134 140 139
4 143 141 144 139
4 142 145 141 146
4 145 142 141 144
4 148 142 143 146
4 145 7 10 146
4 145 150 151 153
4 151 272 150 7
4 151 272 273 150
4 151 272 4 273
4 4 272 2 273
4 151 272 7 4
4 4 260 7 151
4 166 145 151 153
4 166 145 169 151
4 171 166 153 145
4 133 16 140 173
4 124 16 21 133
4 25 21 160 23
4 21 129 160 22
4 121 21 124 127
4 121 120 133 119
4 123 121 125 120
4 123 121 120 133
4 25 133 121 21
4 25 20 163 21
4 118 24 28 161
4 26 28 161 32
4 40 115 28 31
4 115 52 113 112
4 246 112 109 52
4 246 52 109 54
4 56 54 109 55
4 56 107 55 248
4 58 60 59 57
4 63 61 65 104
4 68 72 70 67
4 182 75 73 74
4 77 79 75 80
4 196 79 185 194
4 79 78 185 80
4 77 78 82 84
4 83 77 82 84
4 77 74 84 76
4 96 74 93 72
4 103 66 93 68
4 65 66 69 63
4 63 61 104 213
4 61 60 104 213
4 59 227 226 228
4 274 110 227 225
4 246 36 247 37
4 246 36 35 52
4 52 115 40 31
4 28 31 38 40
4 44 42 158 45
4 120 44 122 158
4 135 133 140 173
4 171 16 173 140
4 171 144 153 140
4 141 144 140 153
4 10 141 15 153
4 10 12 15 13
4 10 8 12 13
4 8 10 12 11
4 8 9 11 255
4 9 253 149 252
4 257 262 149 252
4 262 259 149 7
4 258 7 4 260
4 259 258 7 262
4 262 0 7 252
4 0 6 7 252
4 254 6 252 255
4 0 3 6 252
4 6 3 254 252
4 272 6 11 7
4 4 6 272 7
4 4 6 2 272
4 9 6 11 255
4 9 253 252 255
4 262 264 257 149
4 257 264 275 271
4 259 264 262 149
4 257 264 271 149
4 9 146 7 149
4 10 7 11 9
4 7 12 10 11
4 145 150 153 12
4 12 145 10 153
4 145 146 10 141
4 145 142 147 146
4 171 145 153 144
4 171 142 145 144
4 142 171 145 167
4 142 145 147 167
4 167 145 147 251
4 145 260 7 251
4 145 150 12 7
4 12 145 7 10
4 12 152 153 14
4 152 153 14 130
4 152 151 153 165
4 165 152 276 270
4 152 151 165 276
4 165 152 270 130
4 152 151 276 150
4 276 150 151 273
4 272 7 11 150
4 7 12 11 150
4 153 150 152 12
4 165 16 153 130
4 165 152 130 153
4 15 12 153 14
4 13 131 14 15
4 17 131 15 14
4 17 132 18 19
4 25 24 163 20
4 25 24 118 163
4 119 156 164 118
4 118 117 45 156
4 155 45 117 156
4 113 40 117 155
4 50 49 224 48
4 49 50 224 51
4 50 237 224 51
4 237 50 175 51
4 52 54 220 174
4 52 247 220 54
4 39 247 220 52
4 39 247 52 36
4 115 52 35 31
4 40 115 52 113
4 40 115 113 117
4 115 112 113 114
4 53 52 51 54
4 54 53 109 55
4 52 53 109 54
4 110 246 109 54
4 247 110 54 246
4 247 110 274 225
4 246 274 37 247
4 247 110 246 274
4 110 225 54 57
4 57 217 226 219
4 57 217 218 230
4 219 218 54 57
4 218 54 174 220
4 46 39 52 40
4 39 31 52 40
4 38 42 45 40
4 28 38 44 45
4 121 25 44 119
4 123 135 173 133
4 134 153 140 16
4 134 16 140 133
4 137 135 134 140
4 134 153 141 140
4 134 153 16 17
4 16 17 19 134
4 134 153 17 141
4 153 145 10 141
4 6 9 11 7
4 258 7 0 4
4 1 0 2 5

CELL_TYPES 734
10
10
10
10
10
10
10
10
10
10
10
10
10
10
10
10
10
10
10
10
10
10
10
10
10
10
10
10
10
10
10
10
10
10
10
10
10
10
10
10
10
10
10
10
10
10
10
10
10
10
10
10
10
10
10
10
10
10
10
10
10
10
10
10
10
10
10
10
10
10
10
10
10
10
10
10
10
10
10
10
10
10
10
10
10
10
10
10
10
10
10
10
10
10
10
10
10
10
10
10
10
10
10
10
10
10
10
10
10
10
10
10
10
10
10
10
10
10
10
10
10
10
10
10
10
10
10
10
10
10
10
10
10
10
10
10
10
10
10
10
10
10
10
10
10
10
10
10
10
10
10
10
10
10
10
10
10
10
10
10
10
10
10
10
10
10
10
10
10
10
10
10
10
10
10
10
10
10
10
10
10
10
10
10
10
10
10
10
10
10
10
10
10
10
10
10
10
10
10
10
10
10
10
10
10
10
10
10
10
10
10
10
10
10
10
10
10
10
10
10
10
10
10
10
10
10
10
10
10
10
10
10
10
10
10
10
10
10
10
10
10
10
10
10
10
10
10
10
10
10
10
10
10
10
10
10
10
10
10
10
10
10
10
10
10
10
10
10
10
10
10
10
10
10
10
10
10
10
10
10
10
10
10
10
10
10
10
10
10
10
10
10
10
10
10
10
10
10
10
10
10
10
10
10
10
10
10
10
10
10
10
10
10
10
10
10
10
10
10
10
10
10
10
10
10
10
10
10
10
10
10
10
10
10
10
10
10
10
10
10
10
10
10
10
10
10
10
10
10
10
10
10
10
10
10
10
10
10
10
10
10
10
10
10
10
10
10
10
10
10
10
10
10
10
10
10
10
10
10
10
10
10
10
10
10
10
10
10
10
10
10
10
10
10
10
10
10
10
10
10
10
10
10
10
10
10
10
10
10
10
10
10
10
10
10
10
10
10
10
10
10
10
10
10
10
10
10
10
10
10
10
10
10
10
10
10
10
10
10
10
10
10
10
10
10
10
10
10
10
10
10
10
10
10
10
10
10
10
10
10
10
10
10
10
10
10
10
10
10
10
10
10
10
10
10
10
10
10
10
10
10
10
10
10
10
10
10
10
10
10
10
10
10
10
10
10
10
10
10
10
10
10
10
10
10
10
10
10
10
10
10
10
10
10
10
10
10
10
10
10
10
10
10
10
10
10
10
10
10
10
10
10
10
10
10
10
10
10
10
10
10
10
10
10
10
10
10
10
10
10
10
10
10
10
10
10
10
10
10
10
10
10
10
10
10
10
10
10
10
10
10
10
10
10
10
10
10
10
10
10
10
10
10
10
10
10
10
10
10
10
10
10
10
10
10
10
10
10
10
10
10
10
10
10
10
10
10
10
10
10
10
10
10
10
10
10
10
10
10
10
10
10
10
10
10
10
10
10
10
10
10
10
10
10
10
10
10
10
10
10
10
10
10
10
10
10
10
10
10
10
10
10
10
10
10
10
10
10
10
10
10
10
10
10
10
10
10
10
10
10
10
10
10
10
10
10
10
10
10
10
10
10
10
10
10
10
10
10
10
10
10
10
10
10
10
10
10
10
10
10
10
10
10
10
10
10
10
10
10
10
10
10
10
10
10
10
10
10
10
10
10
10
10
10
10
10
10
10
10
10
10
10
10
10

CELL_DATA 734
SCALARS potentialEnergy FLOAT 1
LOOKUP_TABLE default
24.001852
18.931466
39.825745
41.086937
49.466671
36.259430
35.797911
31.856203
295.852966
220.446060
157.379791
119.619049
64.267792
73.631382
192.370804
246.727936
225.177780
218.087967
292.903198
262.102356
148.584229
121.962318
197.907135
147.635864
204.490097
103.744560
64.564251
74.166740
110.120285
71.315811
53.142323
163.560135
50.972652
169.727158
242.543182
111.567108
147.106598
91.685806
50.746628
197.005005
204.697037
96.862572
73.905022
84.733498
134.556412
153.375153
167.973740
277.380463
147.313431
135.628510
112.149368
97.918846
183.670212
198.415817
137.948036
78.627625
101.147499
93.018951
73.890888
67.678360
98.826424
40.219063
145.711349
272.656067
116.785316
161.508026
398.876068
49.038044
448.320892
116.050003
77.181381
106.229065
104.580185
144.008530
99.121941
24.713840
73.648163
63.609501
202.307343
116.924370
173.040100
151.753067
82.556206
58.390995
117.007401
60.712070
133.719810
90.368484
96.297531
21.897584
59.991562
130.567276
37.618010
64.841030
101.117371
95.922356
161.120300
45.150059
174.847809
147.427872
126.600594
117.058273
105.208817
85.097534
47.496975
53.907242
40.726570
107.847153
78.685669
123.954163
118.506439
216.837891
93.940536
192.774612
375.418579
202.610275
477.128113
180.514771
135.498291
65.511566
181.081818
124.069847
27.220331
115.618729
159.175385
34.035410
235.109772
139.144363
151.808350
110.360428
276.033081
146.043610
196.037003
24.992169
61.550644
151.836365
56.826054
89.784088
63.371658
139.873764
93.011314
35.981020
65.814384
192.625687
94.642159
117.217621
98.136642
92.087105
222.219711
79.375389
86.220505
185.291962
144.642685
266.932831
97.892868
80.232376
23.581958
93.471809
134.416733
146.400192
155.868820
80.952431
77.600555
110.173920
91.425362
111.766655
168.594040
206.516052
74.561371
81.763489
54.944656
50.614853
81.802750
105.010048
139.872284
172.263397
109.045380
74.541885
32.342289
30.824654
62.334820
38.241510
83.664810
52.864342
42.641712
167.517639
137.908699
110.939461
297.041779
178.218933
59.729218
74.790215
338.603699
263.412994
39.807985
143.966690
61.497948
39.412695
81.054596
66.636269
59.788704
89.421875
58.819366
69.552429
207.675461
63.036209
68.898174
26.212341
36.096033
58.730194
50.606369
112.277184
77.339020
151.476151
39.394478
69.565319
157.701263
69.505543
40.647858
22.882033
46.595566
25.655564
58.978653
37.982670
41.599663
114.980423
107.881683
156.749527
353.386810
321.318573
170.899948
176.498199
156.731827
155.304138
187.904984
219.155685
161.454651
261.882660
179.859695
114.896164
97.944420
425.869751
206.437347
158.353592
31.588114
106.026924
49.947659
115.207558
216.342758
128.896568
160.996552
131.702545
165.748001
95.692863
118.461975
50.509342
52.146385
39.956120
61.801281
129.489861
85.188080
49.197239
54.801952
42.172943
171.576126
23.460487
54.949810
41.506403
162.338028
102.583412
103.430328
140.344604
139.592438
118.223122
265.480957
92.318100
176.145691
91.636200
75.342125
157.641785
150.112823
118.829483
184.719131
58.128231
95.471397
110.218834
55.729343
49.821342
52.463356
98.814766
24.028142
101.585602
48.867573
237.084915
162.589661
150.606277
178.877396
110.605705
322.037231
54.617462
37.056282
56.628273
167.264679
39.639942
72.379791
43.189793
63.248436
98.134979
50.997036
44.101555
64.628613
41.618912
88.217041
89.681549
114.207687
31.010529
90.269394
34.600735
110.286476
42.931107
77.583000
35.053576
49.104233
36.500317
51.748573
98.216133
70.505432
55.698292
47.240543
88.973091
115.889534
125.724442
127.056419
158.223511
253.944351
105.444695
59.746735
58.866165
83.186546
236.665771
212.240280
86.944420
82.235420
124.023254
200.923355
203.858978
175.829239
214.681061
149.447235
28.904276
39.544336
70.912632
225.039597
145.196030
95.886147
126.662918
61.804539
230.834854
119.751579
85.837021
143.705872
99.180145
153.719681
53.320881
67.099636
50.584095
240.277939
174.514130
110.217377
182.595062
255.622406
74.116638
97.865173
129.678955
60.967934
45.967190
40.216566
35.440149
51.424400
15.133238
54.318031
68.752350
50.049755
61.560848
296.386597
140.543472
151.396988
98.562767
163.607147
89.519417
219.549820
330.235748
41.533543
58.081753
242.406662
172.962814
157.476456
239.414536
118.254059
103.850441
52.616596
26.192125
43.425064
33.017630
39.796097
42.688511
55.404770
18.307989
32.533176
105.514442
169.667282
211.104996
41.451160
147.188889
166.878647
136.067650
83.627716
103.149117
240.983871
79.303894
318.899506
174.543381
73.819641
115.710541
62.750496
27.058743
109.321136
111.747894
168.378174
97.190125
178.955399
139.330246
55.947693
236.881744
56.851440
35.391077
67.225548
131.565674
203.077515
24.493991
193.819885
187.283539
167.393463
74.729370
78.630135
106.923897
94.925789
49.211048
47.293922
94.121506
127.118668
101.806816
46.529087
187.240219
155.209534
65.731808
168.713242
56.259399
168.268631
88.010818
195.702744
74.826027
26.314966
70.846687
108.898094
59.060970
19.291573
50.096851
267.657349
429.150726
115.877335
128.996758
125.488182
96.011757
161.791046
58.086319
196.726929
342.334198
192.065369
150.735291
248.167282
269.639038
209.319946
127.049042
56.893936
140.072937
174.579971
168.844681
78.016663
29.472870
20.536530
73.901642
232.486069
85.898735
139.320862
186.327530
212.252853
203.400101
207.823471
85.475494
100.207344
126.720337
50.030655
68.217201
125.044212
37.334438
256.259445
287.723969
111.999756
140.761826
132.915237
131.393944
105.119179
137.379234
99.071663
99.320282
41.318747
20.988308
29.302456
151.775208
80.113258
71.277946
65.078339
230.435760
103.165672
197.853516
223.560532
119.041557
87.616379
146.483917
140.270615
148.597595
174.846893
173.819977
223.142685
143.324982
216.775345
81.841301
91.542549
97.963486
92.118591
144.560577
100.061913
21.125861
90.784142
109.604469
53.301556
27.363564
25.277103
16.342468
28.801350
24.925177
40.676285
120.015434
67.659531
77.043411
34.328424
93.697556
84.615013
49.442165
36.939768
69.129036
31.082939
97.267845
107.473747
66.630405
63.513020
40.282768
82.052689
12.839537
59.246693
57.489677
116.760666
59.792912
80.067841
74.210762
86.279076
40.380722
109.739891
103.899323
180.334412
231.408615
66.337994
71.391201
96.217499
200.293991
125.383560
47.838989
224.160812
213.658569
233.604660
72.319569
229.122543
163.199417
180.152039
203.636505
129.210709
167.033981
365.586029
199.975967
198.066238
84.040749
83.353119
59.208832
53.732887
59.626419
36.972618
83.151230
114.899208
186.791641
142.117874
223.362991
198.779388
93.591766
134.530418
106.441330
130.542236
76.958282
78.074020
88.229935
86.496704
377.516510
291.757172
82.148277
283.206116
89.317551
47.985691
156.293533
75.615906
90.744492
18.745415
17.353140
92.797775
26.580797
81.805191
80.186150
16.793645
97.583992
24.309425
50.280106
31.642483
74.708694
40.459249
18.384774
18.082139
64.114319
113.371834
71.120384
80.282433
31.579519
16.928163
12.976566
83.329376
16.165174
75.355515
102.499039
65.373661
59.160927
35.966026
123.402306
96.984932
157.436508
83.816772
129.949646
72.368641
69.732700
238.172287
234.376801
131.403343
23.796135
66.999081
22.097739
92.707703
28.700207
35.336779
26.110210
22.981177
56.214390
80.230103
123.850449
21.465372
20.082952
52.036621
54.265610
23.213844
64.886627
274.570801
203.437042
36.509556
222.058258
103.213898
264.605927
91.221420
186.173264
43.851357
98.496864
278.215546
191.899780
124.333076
160.261154
333.488434
353.938049
325.701233
208.720093
334.593781
92.677727
356.309692
164.447693
217.429642
97.634209
136.306076
101.161102
67.396664
54.988605
75.072693
70.325241
97.706841
322.177979
119.088066
196.658310
294.869141
21.133301
44.945007
70.386742
258.719666
107.422333
23.527267
47.754833
70.283062
24.002470
72.224129
115.850952
49.984135
21.000175

