# vtk DataFile Version 3.1
Tetrahedral Mesh Visualization
ASCII
DATASET UNSTRUCTURED_GRID

POINTS 277 FLOAT
0.000000 1.378113 1.754166
0.000000 0.000000 0.000000
1.997125 -0.006955 0.001647
0.000000 1.666667 0.000000
2.417235 -0.009941 1.741351
0.000000 0.000000 1.666667
1.690013 2.463071 0.007361
3.000434 2.445736 2.332799
3.990876 4.993209 -0.007062
3.079789 4.995377 1.649393
5.209481 5.002689 1.598576
3.480055 3.171098 0.002216
5.391969 3.302907 -0.011772
5.984753 4.997971 -0.024165
7.340579 3.314537 -0.035654
6.962343 4.998281 1.291396
9.250031 2.173319 1.968388
8.684078 4.995044 1.548275
9.319518 3.321860 -0.068119
10.650090 4.995300 1.561928
11.314363 3.329804 -0.106160
11.105494 1.867107 1.460703
10.654167 1.662429 -0.089333
12.647941 1.661587 -0.123543
13.317371 3.326400 -0.137207
12.967045 1.872707 1.364216
14.651982 1.655263 -0.139001
13.984112 -0.006994 -0.131810
15.465274 2.134976 1.542220
15.330697 -0.010590 1.522251
13.330894 -0.003710 1.537682
17.281418 -0.028171 1.467151
16.649418 1.641094 -0.150571
17.965715 -0.041244 -0.153022
15.979156 -0.019695 -0.143619
18.641945 1.621370 -0.167217
18.985380 -0.044662 1.160708
19.946287 -0.064923 -0.186995
16.745108 -0.014711 3.162927
19.011711 -0.030476 2.951770
17.715126 2.661345 2.784180
18.025429 -0.015963 4.850103
16.707932 1.649341 4.851720
16.021614 -0.012521 4.861223
14.695237 -0.009956 3.191696
15.788891 2.877413 3.201066
18.762556 1.676103 4.833375
17.345406 3.316929 4.841177
19.315975 3.365149 4.821226
19.347364 4.969194 3.158231
21.030920 3.650682 4.781934
21.342678 4.965780 3.103046
19.629736 2.455496 2.173779
20.650845 4.960805 1.452370
21.908659 2.470239 2.220294
22.640642 4.960289 1.387719
23.246716 3.337551 -0.284438
23.961798 2.416948 1.996218
24.961649 3.643814 -0.316048
24.963896 1.851143 -0.307092
25.968821 2.482969 1.402896
27.238564 1.672485 -0.335792
26.674150 3.360613 -0.339639
29.262829 -0.009071 1.266019
27.978079 -0.025798 -0.332393
29.289036 1.652114 -0.353403
30.975378 -0.011126 0.965571
31.984386 -0.027456 -0.350283
31.293289 1.639462 -0.363255
29.979221 -0.014184 -0.352673
33.254013 1.623679 -0.363691
33.978271 -0.030616 -0.362320
32.674088 -0.023042 1.264175
34.588318 -0.024947 1.319234
34.988041 2.384780 2.154147
36.502033 -0.027171 1.448173
35.139202 -0.008257 3.020707
36.831413 -0.014601 3.174202
38.300472 2.520021 4.623759
37.686390 2.135239 1.806442
38.298965 -0.028604 2.173438
37.991364 -0.048637 -0.361879
37.990036 0.000291 4.647867
36.003696 -0.000632 4.626489
36.568130 1.750038 4.619018
34.943748 1.343875 4.631887
34.859165 3.140756 4.613162
36.763180 3.484711 4.607632
34.012524 5.012777 4.593486
32.707535 3.309357 4.620716
33.276939 4.990695 2.946554
32.014378 5.014589 4.596213
35.159199 4.988028 2.981884
32.199982 2.590167 2.057203
34.582783 4.980515 1.287755
32.615093 3.303699 -0.379343
33.211075 -0.004306 2.962871
30.982899 0.000248 2.753401
31.323608 1.669387 4.632624
33.258869 1.612554 4.635798
30.682022 3.346661 4.627549
28.681959 3.346349 4.632293
29.340109 1.677360 4.640165
30.013338 2.503755 2.111637
27.953320 2.490491 2.130523
26.678471 3.330716 4.650372
27.341127 1.666265 4.655447
24.640335 4.971764 1.342342
21.948238 4.938117 -0.262598
21.289215 3.277803 -0.236091
22.689905 1.640426 -0.265292
19.968454 4.956339 -0.200550
19.309694 3.286026 -0.186793
18.661766 4.963934 1.497945
17.986643 4.965217 -0.163091
17.314968 3.303258 -0.161737
15.987137 4.978766 -0.159321
16.661350 4.982333 1.505441
14.658829 4.994740 1.516191
13.707177 2.952972 3.132771
13.026055 1.323884 4.877557
12.681482 0.007432 3.210849
14.025171 -0.009092 4.866836
11.301254 1.632187 4.899554
10.673009 0.010499 3.245445
12.024488 0.012068 4.883299
10.024207 0.014618 4.919885
11.324453 0.001719 1.568585
9.306046 -0.004016 1.606333
9.982833 -0.003686 -0.076546
8.667258 1.654574 -0.054585
7.969414 4.990742 -0.050980
9.970819 4.989565 -0.084910
11.234493 2.652399 3.185615
9.261952 5.008555 3.226585
10.764511 3.330068 4.899497
11.323949 5.007593 3.218482
10.023732 5.016253 4.910376
12.033451 5.005274 4.876862
8.023876 5.013416 4.941620
8.762882 3.401143 4.932143
6.972220 5.001359 3.080002
5.375021 3.378684 4.979751
6.016756 5.010026 4.973344
7.052404 3.688746 4.961827
5.145648 2.372695 3.127978
4.627877 5.005981 3.282077
3.498137 3.205952 4.998537
4.010665 5.013648 4.990967
2.370700 4.995489 3.278350
4.828724 1.605101 -0.016247
4.901426 0.002194 1.861111
6.708359 1.639584 -0.034681
7.007851 2.553954 2.162376
8.662886 0.000077 3.282971
17.343035 4.976775 3.171326
15.338661 4.988877 3.182301
16.029686 4.982625 4.846736
14.740054 1.602184 4.858837
15.296584 3.290961 4.855123
11.980468 -0.003273 -0.109824
15.317051 3.320123 -0.149613
13.988155 4.986841 -0.149182
12.655478 4.991671 1.535364
13.340513 4.996212 3.191233
7.237281 -0.004429 1.655522
6.675906 -0.003560 3.348473
4.923270 1.656015 4.982784
6.013177 0.008416 4.971941
4.919735 -0.000112 3.645596
4.009122 0.012878 4.993027
7.067962 1.892982 4.963867
8.018483 0.004691 4.946938
9.298489 1.704251 4.932240
21.033796 1.861907 4.787180
22.735325 3.358577 4.723910
24.030993 4.966694 4.697118
24.688889 3.320395 4.678039
23.334120 4.969485 3.037361
27.331263 4.998231 2.975209
26.647268 4.983348 1.314869
25.331907 4.984075 2.994032
35.139893 1.570637 -0.377237
36.824856 1.407134 -0.379725
40.003338 3.221631 3.249539
39.994247 1.595603 2.250209
38.305218 4.966878 2.129166
39.999233 3.208839 1.522606
40.004349 4.971858 2.941706
38.012234 5.000048 4.594243
40.012997 4.990892 4.609157
40.005070 3.325778 4.629203
39.991943 1.660171 4.665187
39.988453 -0.022249 3.002579
39.993298 -0.043341 1.331085
40.000523 -0.047663 -0.331653
39.988743 1.611103 -0.348301
39.990524 3.279019 -0.372553
38.295197 2.416358 -0.378456
37.985943 4.947432 -0.403095
39.987354 4.964716 1.279547
36.840164 4.985273 3.137262
36.503761 4.968958 1.411705
36.494999 3.130985 -0.389199
35.980698 4.952684 -0.407367
34.575867 3.270330 -0.385021
33.979744 4.968818 -0.405210
30.630852 3.306838 -0.377522
29.973179 4.974027 -0.387478
31.978527 4.973172 -0.397380
30.643759 4.986850 1.270239
28.632837 3.319811 -0.358951
26.730200 -0.015260 3.053437
27.255096 -0.012429 1.358306
25.337936 1.651842 4.677554
24.032187 -0.033576 4.707970
26.025303 -0.015272 4.679686
25.011930 -0.028003 3.368971
23.290907 1.666038 4.711582
23.285585 -0.039952 3.108951
21.274179 -0.034169 3.092181
22.036621 -0.026832 4.763344
20.034618 -0.021725 4.818662
18.032948 4.974010 4.834193
20.044319 4.970393 4.810143
22.716965 -0.046551 1.431970
24.989294 -0.030709 1.580728
23.960951 -0.047155 -0.277020
25.973707 -0.030009 -0.311691
25.960693 4.967659 -0.337807
25.704924 2.214908 3.156957
28.648785 4.990675 1.296268
27.967506 4.973432 -0.361719
26.020172 4.987234 4.659059
11.978017 4.995195 -0.114862
13.031172 3.113784 4.870308
14.029612 4.993090 4.859021
22.044146 4.965951 4.751424
28.737169 0.000224 2.962161
29.331150 5.012094 2.956439
30.018934 5.025113 4.617461
31.314137 4.998336 2.939146
32.005421 0.010553 4.642981
34.010582 0.009152 4.647119
36.009308 5.009748 4.586339
32.625168 4.985806 1.273439
20.639341 1.600767 -0.208327
20.706587 -0.056790 1.414012
23.950075 4.950639 -0.307733
28.019583 5.005558 4.635264
39.992409 4.939081 -0.389701
3.191405 1.477021 5.000249
0.000000 3.103853 1.750106
0.000000 5.000000 1.666667
0.000000 3.333333 0.000000
2.001317 4.998824 0.002718
0.000000 5.000000 0.000000
0.000000 5.000000 3.333333
0.000000 0.000000 3.333333
1.703281 2.474036 5.002673
3.041820 -0.004184 3.394759
2.000113 0.005468 5.002471
0.000000 2.403264 3.370902
0.000000 1.666667 5.000000
0.000000 3.333333 5.000000
0.000000 0.000000 5.000000
28.019745 0.001728 4.655316
30.012180 0.009887 4.646078
35.980213 -0.035068 -0.371033
39.982254 -0.009434 4.668251
7.983204 -0.010609 -0.046204
2.003343 4.997116 4.998807
3.151373 1.445281 0.002391
3.990275 -0.007961 -0.003118
21.950888 -0.065730 -0.232688
0.000000 5.000000 5.000000
5.982432 -0.009208 -0.028180

CELLS 734 3670
4 0 1 2 3
4 0 4 2 5
4 0 3 2 6
4 4 6 0 2
4 4 6 7 0
4 8 9 10 11
4 12 13 14 15
4 16 17 14 18
4 19 20 18 21
4 20 22 21 23
4 24 25 26 23
4 25 27 26 23
4 26 28 29 30
4 28 29 31 32
4 33 34 32 31
4 31 33 35 32
4 31 33 36 35
4 33 37 36 35
4 38 39 40 31
4 41 42 43 38
4 44 42 45 38
4 44 42 38 43
4 46 38 42 41
4 46 47 40 48
4 49 50 51 52
4 53 54 51 55
4 56 54 55 57
4 56 58 59 57
4 60 59 61 62
4 63 61 64 65
4 66 67 68 69
4 67 70 71 72
4 73 74 75 76
4 74 77 75 76
4 77 78 79 80
4 79 81 75 80
4 77 78 80 82
4 77 83 76 84
4 83 85 76 84
4 85 86 74 84
4 74 86 87 84
4 88 89 86 90
4 91 89 88 90
4 86 88 90 92
4 90 86 92 74
4 86 89 74 90
4 93 94 95 74
4 70 74 72 93
4 70 73 71 72
4 74 96 73 72
4 66 97 93 72
4 96 97 72 93
4 96 98 97 93
4 85 96 74 99
4 96 98 93 99
4 98 89 100 93
4 101 102 100 103
4 104 105 101 106
4 107 58 57 60
4 58 107 57 56
4 53 108 109 55
4 56 110 109 54
4 53 111 109 108
4 112 53 109 52
4 111 112 113 53
4 112 111 113 114
4 115 116 114 117
4 40 28 115 117
4 45 117 118 28
4 119 28 25 44
4 120 44 121 122
4 123 121 124 125
4 125 123 126 124
4 127 128 21 124
4 16 129 128 21
4 16 18 14 130
4 16 17 18 19
4 131 17 132 18
4 16 19 18 21
4 133 16 19 134
4 135 134 133 136
4 135 137 136 138
4 137 134 139 140
4 141 142 143 144
4 145 146 147 7
4 142 148 147 146
4 7 146 147 149
4 10 7 9 146
4 145 150 7 151
4 152 151 150 153
4 16 128 154 124
4 124 21 121 133
4 25 28 30 44
4 28 38 45 40
4 45 47 40 42
4 155 45 156 47
4 157 156 47 155
4 155 45 40 117
4 45 42 158 159
4 44 42 43 158
4 119 45 158 159
4 120 44 158 119
4 25 127 21 121
4 25 27 160 30
4 127 25 160 30
4 25 127 121 30
4 44 25 121 30
4 28 30 44 29
4 119 28 44 45
4 119 28 118 25
4 28 24 26 161
4 26 32 29 28
4 28 31 29 38
4 46 38 41 39
4 46 38 39 40
4 28 117 40 45
4 118 28 117 161
4 162 24 118 161
4 118 119 163 164
4 136 119 164 163
4 25 133 21 163
4 128 16 21 124
4 165 166 153 154
4 166 167 168 169
4 167 168 169 170
4 171 168 172 166
4 124 173 126 154
4 123 121 133 124
4 120 125 122 121
4 122 158 44 43
4 47 46 40 42
4 52 50 174 48
4 175 50 174 54
4 176 175 177 178
4 179 60 180 181
4 64 69 63 65
4 68 72 67 66
4 70 73 182 71
4 74 79 183 75
4 184 78 185 79
4 79 184 186 187
4 186 184 188 187
4 184 189 190 191
4 184 78 79 186
4 78 189 184 191
4 189 184 190 188
4 184 78 191 192
4 184 78 192 185
4 192 78 80 185
4 193 80 194 185
4 195 81 196 194
4 81 79 196 194
4 197 187 196 198
4 187 79 185 196
4 79 184 187 185
4 197 199 187 198
4 199 197 187 200
4 199 200 187 186
4 78 201 79 186
4 189 201 87 78
4 202 201 79 74
4 201 74 92 87
4 201 202 92 74
4 201 202 79 186
4 202 203 74 79
4 202 198 203 79
4 204 202 199 203
4 202 203 205 74
4 202 204 205 203
4 182 203 74 205
4 74 203 183 79
4 79 203 183 198
4 79 81 198 183
4 81 79 198 196
4 187 79 196 198
4 202 198 79 186
4 202 204 94 205
4 94 95 205 206
4 207 208 209 210
4 208 207 211 210
4 104 103 211 65
4 104 60 212 213
4 214 215 216 217
4 218 219 220 221
4 222 174 220 221
4 46 39 222 174
4 52 46 40 48
4 40 49 52 48
4 53 49 52 113
4 40 49 155 113
4 155 45 47 40
4 157 47 223 155
4 49 223 224 48
4 52 50 51 54
4 175 54 57 178
4 218 175 54 57
4 225 219 54 57
4 218 175 57 177
4 57 217 219 218
4 219 225 226 57
4 225 227 226 57
4 59 110 57 227
4 59 60 61 228
4 61 60 213 228
4 64 61 213 228
4 63 61 213 64
4 61 104 211 65
4 180 60 104 62
4 58 229 62 180
4 58 60 180 62
4 60 61 104 62
4 60 226 230 212
4 226 60 213 212
4 60 104 212 230
4 179 60 230 104
4 104 211 231 62
4 180 229 62 232
4 180 232 62 231
4 179 60 104 180
4 233 181 105 179
4 181 105 179 230
4 105 214 106 230
4 105 214 230 177
4 215 214 218 217
4 215 217 218 219
4 218 215 219 221
4 218 175 174 54
4 39 52 220 174
4 39 46 52 174
4 115 52 112 35
4 28 115 117 161
4 162 118 116 161
4 24 162 118 163
4 20 19 234 163
4 25 133 163 119
4 120 119 158 235
4 236 119 235 159
4 235 119 158 159
4 119 235 133 136
4 138 235 236 164
4 45 47 42 159
4 46 38 40 42
4 49 50 52 48
4 237 175 176 178
4 181 233 177 176
4 180 179 231 104
4 207 103 65 211
4 207 103 68 65
4 65 66 103 68
4 103 66 97 93
4 66 103 97 63
4 213 104 63 238
4 238 97 103 63
4 104 102 103 238
4 104 106 212 230
4 214 212 106 230
4 214 212 216 106
4 214 212 217 216
4 214 212 230 217
4 226 217 230 212
4 226 60 230 57
4 181 60 57 230
4 179 105 104 230
4 179 105 101 104
4 104 239 103 101
4 239 101 240 100
4 91 241 240 100
4 241 239 240 100
4 239 241 103 100
4 103 210 93 241
4 103 207 93 210
4 210 103 231 239
4 103 239 104 231
4 103 104 63 65
4 65 66 63 103
4 65 66 68 69
4 68 72 66 93
4 96 98 242 97
4 85 96 99 243
4 85 86 99 74
4 86 89 99 74
4 88 86 244 92
4 74 86 92 87
4 201 244 87 92
4 244 86 87 92
4 90 74 92 94
4 94 95 206 245
4 95 209 206 245
4 245 207 95 209
4 208 232 231 211
4 180 104 231 62
4 181 60 107 57
4 54 175 51 178
4 50 52 174 54
4 246 36 52 247
4 246 36 37 35
4 52 31 36 35
4 31 39 52 36
4 39 46 222 41
4 39 222 174 220
4 174 218 220 221
4 218 219 54 220
4 225 219 220 54
4 56 110 54 57
4 110 56 59 57
4 60 59 226 228
4 60 226 213 228
4 57 217 230 226
4 214 217 230 218
4 218 57 230 177
4 181 105 230 177
4 179 60 181 230
4 58 107 180 60
4 229 107 58 248
4 229 107 180 58
4 60 58 59 62
4 58 107 56 248
4 108 56 109 55
4 108 56 55 248
4 107 56 55 57
4 107 181 57 178
4 57 181 177 178
4 181 176 177 178
4 233 181 177 105
4 249 239 101 240
4 91 89 241 100
4 89 91 241 90
4 210 245 93 241
4 245 241 90 93
4 93 94 90 245
4 74 202 92 94
4 205 204 94 206
4 202 198 199 203
4 202 198 186 199
4 199 197 200 250
4 199 186 187 198
4 200 186 188 187
4 184 189 186 188
4 201 189 87 244
4 189 201 78 186
4 201 78 79 87
4 189 78 184 186
4 186 79 187 198
4 74 201 79 87
4 74 79 84 87
4 79 78 84 87
4 77 78 84 79
4 74 77 84 79
4 74 85 84 76
4 83 243 76 85
4 85 96 243 76
4 73 96 74 76
4 96 93 74 99
4 89 93 99 74
4 93 94 74 90
4 93 94 245 95
4 207 95 68 93
4 95 70 68 93
4 95 70 74 205
4 74 70 182 205
4 94 95 74 205
4 241 89 90 93
4 104 179 231 239
4 181 60 180 107
4 107 57 55 178
4 57 54 55 178
4 53 49 51 52
4 40 49 113 52
4 155 47 223 48
4 45 47 159 156
4 119 156 45 159
4 120 44 119 121
4 16 173 124 154
4 166 167 169 145
4 145 7 147 251
4 9 7 252 149
4 253 254 252 255
4 256 253 255 254
4 6 9 252 255
4 253 257 149 252
4 7 258 259 260
4 260 261 251 170
4 169 260 251 170
4 169 251 167 170
4 166 167 145 171
4 16 22 18 130
4 25 24 20 23
4 24 25 118 28
4 119 156 118 45
4 119 28 45 118
4 119 45 44 158
4 44 38 28 29
4 25 28 26 30
4 25 24 26 28
4 24 20 234 163
4 162 24 234 163
4 163 119 118 25
4 235 135 133 136
4 135 134 140 133
4 145 141 153 144
4 145 260 169 151
4 0 258 4 5
4 259 258 262 263
4 264 259 262 263
4 258 7 262 0
4 260 258 259 261
4 258 261 263 259
4 261 258 263 265
4 261 260 251 259
4 167 251 169 145
4 145 260 251 169
4 166 167 171 168
4 16 171 153 140
4 137 135 136 134
4 138 135 235 136
4 235 138 136 164
4 236 119 156 164
4 157 156 159 47
4 155 47 48 40
4 40 49 48 155
4 46 52 174 48
4 247 225 220 54
4 110 225 57 227
4 60 59 57 226
4 104 61 211 62
4 232 211 62 231
4 103 104 211 231
4 239 210 103 241
4 241 93 103 100
4 68 72 93 70
4 103 207 68 93
4 207 103 211 210
4 210 208 231 211
4 103 210 231 211
4 245 207 210 93
4 245 207 209 210
4 245 207 93 95
4 70 95 74 93
4 70 73 74 182
4 182 203 183 74
4 202 74 205 94
4 93 89 90 74
4 89 241 100 93
4 93 98 103 100
4 101 104 102 103
4 104 101 102 106
4 106 238 104 212
4 266 216 212 106
4 106 238 212 266
4 106 238 102 104
4 267 266 238 102
4 97 102 267 238
4 106 238 266 102
4 97 102 238 103
4 97 102 103 98
4 97 102 98 267
4 97 98 242 267
4 96 98 99 242
4 89 98 99 93
4 239 101 100 103
4 104 179 239 101
4 179 249 239 101
4 105 179 101 249
4 233 105 249 179
4 177 181 57 230
4 175 57 177 178
4 175 237 51 178
4 55 54 51 178
4 112 111 109 53
4 112 53 52 113
4 117 115 113 114
4 116 118 117 161
4 115 116 117 161
4 28 115 161 32
4 29 32 26 34
4 26 30 29 27
4 34 26 29 27
4 29 34 31 32
4 31 115 32 35
4 31 115 28 32
4 246 112 52 35
4 246 247 52 54
4 247 110 225 54
4 59 227 57 226
4 213 104 238 212
4 104 103 63 238
4 97 98 103 93
4 70 73 72 74
4 71 182 268 73
4 182 75 268 73
4 182 75 183 268
4 183 81 268 75
4 182 75 74 183
4 79 81 183 75
4 79 81 80 194
4 78 192 80 82
4 192 193 80 82
4 269 193 192 82
4 193 192 80 185
4 80 79 194 185
4 77 74 75 79
4 85 96 76 74
4 96 243 242 99
4 98 102 103 100
4 104 105 106 230
4 214 218 230 177
4 50 175 51 54
4 49 155 223 48
4 157 156 236 159
4 236 119 159 156
4 235 119 164 136
4 236 119 164 235
4 133 235 120 123
4 120 235 133 119
4 135 123 235 133
4 124 173 123 126
4 173 172 126 154
4 166 171 154 172
4 172 171 154 173
4 171 16 154 173
4 171 166 154 153
4 16 171 154 153
4 124 173 16 133
4 124 173 133 123
4 25 133 119 121
4 19 16 133 21
4 163 19 133 21
4 134 19 133 136
4 133 119 136 163
4 133 19 163 136
4 132 20 18 19
4 20 132 234 19
4 20 19 163 21
4 22 20 21 18
4 16 22 21 18
4 128 129 127 21
4 160 129 21 127
4 160 21 25 127
4 25 20 21 23
4 25 27 23 160
4 25 27 30 26
4 23 22 21 160
4 16 129 21 22
4 128 130 165 270
4 128 130 270 129
4 128 130 16 165
4 16 165 153 154
4 17 16 14 153
4 131 17 18 14
4 17 141 153 15
4 12 10 15 153
4 15 17 14 153
4 153 16 14 130
4 16 129 22 130
4 128 130 129 16
4 16 128 165 154
4 151 166 153 165
4 260 145 7 151
4 9 6 252 7
4 7 262 252 149
4 260 259 7 251
4 7 259 147 251
4 264 259 271 149
4 259 7 147 149
4 146 148 147 149
4 271 259 147 149
4 148 271 147 149
4 146 142 143 141
4 144 141 140 139
4 141 134 140 139
4 143 141 144 139
4 142 145 141 146
4 145 142 141 144
4 148 142 143 146
4 145 7 10 146
4 145 150 151 153
4 151 272 150 7
4 151 272 273 150
4 151 272 4 273
4 4 272 2 273
4 151 272 7 4
4 4 260 7 151
4 166 145 151 153
4 166 145 169 151
4 171 166 153 145
4 133 16 140 173
4 124 16 21 133
4 25 21 160 23
4 21 129 160 22
4 121 21 124 127
4 121 120 133 119
4 123 121 125 120
4 123 121 120 133
4 25 133 121 21
4 25 20 163 21
4 118 24 28 161
4 26 28 161 32
4 40 115 28 31
4 115 52 113 112
4 246 112 109 52
4 246 52 109 54
4 56 54 109 55
4 56 107 55 248
4 58 60 59 57
4 63 61 65 104
4 68 72 70 67
4 182 75 73 74
4 77 79 75 80
4 196 79 185 194
4 79 78 185 80
4 77 78 82 84
4 83 77 82 84
4 77 74 84 76
4 96 74 93 72
4 103 66 93 68
4 65 66 69 63
4 63 61 104 213
4 61 60 104 213
4 59 227 226 228
4 274 110 227 225
4 246 36 247 37
4 246 36 35 52
4 52 115 40 31
4 28 31 38 40
4 44 42 158 45
4 120 44 122 158
4 135 133 140 173
4 171 16 173 140
4 171 144 153 140
4 141 144 140 153
4 10 141 15 153
4 10 12 15 13
4 10 8 12 13
4 8 10 12 11
4 8 9 11 255
4 9 253 149 252
4 257 262 149 252
4 262 259 149 7
4 258 7 4 260
4 259 258 7 262
4 262 0 7 252
4 0 6 7 252
4 254 6 252 255
4 0 3 6 252
4 6 3 254 252
4 272 6 11 7
4 4 6 272 7
4 4 6 2 272
4 9 6 11 255
4 9 253 252 255
4 262 264 257 149
4 257 264 275 271
4 259 264 262 149
4 257 264 271 149
4 9 146 7 149
4 10 7 11 9
4 7 12 10 11
4 145 150 153 12
4 12 145 10 153
4 145 146 10 141
4 145 142 147 146
4 171 145 153 144
4 171 142 145 144
4 142 171 145 167
4 142 145 147 167
4 167 145 147 251
4 145 260 7 251
4 145 150 12 7
4 12 145 7 10
4 12 152 153 14
4 152 153 14 130
4 152 151 153 165
4 165 152 276 270
4 152 151 165 276
4 165 152 270 130
4 152 151 276 150
4 276 150 151 273
4 272 7 11 150
4 7 12 11 150
4 153 150 152 12
4 165 16 153 130
4 165 152 130 153
4 15 12 153 14
4 13 131 14 15
4 17 131 15 14
4 17 132 18 19
4 25 24 163 20
4 25 24 118 163
4 119 156 164 118
4 118 117 45 156
4 155 45 117 156
4 113 40 117 155
4 50 49 224 48
4 49 50 224 51
4 50 237 224 51
4 237 50 175 51
4 52 54 220 174
4 52 247 220 54
4 39 247 220 52
4 39 247 52 36
4 115 52 35 31
4 40 115 52 113
4 40 115 113 117
4 115 112 113 114
4 53 52 51 54
4 54 53 109 55
4 52 53 109 54
4 110 246 109 54
4 247 110 54 246
4 247 110 274 225
4 246 274 37 247
4 247 110 246 274
4 110 225 54 57
4 57 217 226 219
4 57 217 218 230
4 219 218 54 57
4 218 54 174 220
4 46 39 52 40
4 39 31 52 40
4 38 42 45 40
4 28 38 44 45
4 121 25 44 119
4 123 135 173 133
4 134 153 140 16
4 134 16 140 133
4 137 135 134 140
4 134 153 141 140
4 134 153 16 17
4 16 17 19 134
4 134 153 17 141
4 153 145 10 141
4 6 9 11 7
4 258 7 0 4
4 1 0 2 5

CELL_TYPES 734
10
10
10
10
10
10
10
10
10
10
10
10
10
10
10
10
10
10
10
10
10
10
10
10
10
10
10
10
10
10
10
10
10
10
10
10
10
10
10
10
10
10
10
10
10
10
10
10
10
10
10
10
10
10
10
10
10
10
10
10
10
10
10
10
10
10
10
10
10
10
10
10
10
10
10
10
10
10
10
10
10
10
10
10
10
10
10
10
10
10
10
10
10
10
10
10
10
10
10
10
10
10
10
10
10
10
10
10
10
10
10
10
10
10
10
10
10
10
10
10
10
10
10
10
10
10
10
10
10
10
10
10
10
10
10
10
10
10
10
10
10
10
10
10
10
10
10
10
10
10
10
10
10
10
10
10
10
10
10
10
10
10
10
10
10
10
10
10
10
10
10
10
10
10
10
10
10
10
10
10
10
10
10
10
10
10
10
10
10
10
10
10
10
10
10
10
10
10
10
10
10
10
10
10
10
10
10
10
10
10
10
10
10
10
10
10
10
10
10
10
10
10
10
10
10
10
10
10
10
10
10
10
10
10
10
10
10
10
10
10
10
10
10
10
10
10
10
10
10
10
10
10
10
10
10
10
10
10
10
10
10
10
10
10
10
10
10
10
10
10
10
10
10
10
10
10
10
10
10
10
10
10
10
10
10
10
10
10
10
10
10
10
10
10
10
10
10
10
10
10
10
10
10
10
10
10
10
10
10
10
10
10
10
10
10
10
10
10
10
10
10
10
10
10
10
10
10
10
10
10
10
10
10
10
10
10
10
10
10
10
10
10
10
10
10
10
10
10
10
10
10
10
10
10
10
10
10
10
10
10
10
10
10
10
10
10
10
10
10
10
10
10
10
10
10
10
10
10
10
10
10
10
10
10
10
10
10
10
10
10
10
10
10
10
10
10
10
10
10
10
10
10
10
10
10
10
10
10
10
10
10
10
10
10
10
10
10
10
10
10
10
10
10
10
10
10
10
10
10
10
10
10
10
10
10
10
10
10
10
10
10
10
10
10
10
10
10
10
10
10
10
10
10
10
10
10
10
10
10
10
10
10
10
10
10
10
10
10
10
10
10
10
10
10
10
10
10
10
10
10
10
10
10
10
10
10
10
10
10
10
10
10
10
10
10
10
10
10
10
10
10
10
10
10
10
10
10
10
10
10
10
10
10
10
10
10
10
10
10
10
10
10
10
10
10
10
10
10
10
10
10
10
10
10
10
10
10
10
10
10
10
10
10
10
10
10
10
10
10
10
10
10
10
10
10
10
10
10
10
10
10
10
10
10
10
10
10
10
10
10
10
10
10
10
10
10
10
10
10
10
10
10
10
10
10
10
10
10
10
10
10
10
10
10
10
10
10
10
10
10
10
10
10
10
10
10
10
10
10
10
10
10
10
10
10
10
10
10
10
10
10
10
10
10
10
10
10
10
10
10
10
10
10
10
10
10
10
10
10
10
10
10
10
10
10
10
10
10
10
10
10
10
10
10
10
10
10
10
10
10
10
10
10
10
10
10
10
10
10
10
10
10
10
10
10
10
10
10
10
10
10
10
10
10
10
10
10
10
10
10
10
10
10
10
10
10
10
10
10
10
10
10
10
10
10
10
10
10
10
10
10
10
10
10
10
10
10
10
10
10
10
10
10
10
10
10
10
10
10
10
10
10
10
10

CELL_DATA 734
SCALARS potentialEnergy FLOAT 1
LOOKUP_TABLE default
75.670517
66.716461
55.060322
97.594940
75.178703
35.756920
63.177444
61.787231
94.137329
43.123863
55.746662
57.411545
40.444048
120.654037
175.208344
101.129608
36.996315
185.047272
59.333538
44.130985
160.572693
121.445107
67.001766
25.522351
255.169052
303.245331
199.586960
143.241089
104.712013
42.775177
73.527405
73.733540
34.022438
35.213495
182.390717
78.676208
165.882858
51.081673
45.398468
28.820248
48.384293
31.543556
47.397823
18.327019
25.191084
29.085106
68.906605
124.518059
15.996710
70.966331
174.688568
141.511566
142.434418
166.554306
78.453674
42.070881
144.727737
124.170700
94.749374
161.234955
191.660919
146.553116
342.914917
497.680359
124.187531
192.040817
56.741581
102.452370
57.388454
51.804604
35.579370
131.950081
97.740623
70.857731
78.153885
146.573700
80.768288
33.814224
109.142082
130.566513
161.311996
98.718178
49.078354
68.298927
150.908127
77.600952
88.255585
76.034294
126.906853
118.920273
102.777161
67.532715
31.157074
90.535919
62.438206
60.886883
78.121361
67.340229
45.377327
29.163641
36.366493
79.802994
139.429276
31.971172
64.332920
78.186623
60.477993
67.575077
33.715887
59.876865
21.337552
60.713215
180.269379
39.009220
53.731384
78.799889
60.982265
33.103287
35.009155
68.359173
226.884659
132.644234
49.724159
56.685966
84.145134
115.172203
111.070641
102.514610
39.006968
35.482590
83.846230
167.041214
320.670807
135.972076
57.577312
59.458221
96.735519
20.918413
82.722084
203.432114
132.032684
124.411850
96.923233
219.474319
72.943760
117.143959
183.349075
249.009888
453.275330
93.120461
325.473969
374.083710
175.354889
235.005661
147.253357
160.129562
177.996857
265.646057
130.416862
77.232681
93.430374
76.247284
51.103340
93.572342
109.357414
168.743912
104.064835
170.517883
68.242916
105.148888
90.983643
96.293427
127.475792
331.031250
210.209396
141.173645
96.196907
53.451187
61.483196
94.215027
25.753014
84.747581
98.253632
167.654251
112.183495
83.846405
39.863550
65.720821
255.753922
54.943775
71.716019
33.214878
86.922562
437.805573
162.897461
116.278397
111.197708
131.222717
88.112778
145.618011
145.157684
176.700867
124.970108
75.706612
55.878559
35.351444
22.405065
103.923607
33.057989
61.292015
39.580807
92.927956
121.739929
70.834980
108.970047
99.946289
54.786526
32.225906
53.893414
101.289101
92.158981
126.955505
80.130287
47.818565
54.471619
147.163422
365.911591
202.918045
145.692551
68.083256
66.408009
170.258911
73.268517
48.070312
171.731033
51.978336
52.098160
39.263796
122.540291
77.367538
48.970669
65.697338
235.607559
193.199295
222.772034
58.269020
161.016861
70.843208
118.469124
89.895081
32.510309
35.834238
42.999531
32.268879
94.527672
73.005814
93.503975
41.693716
57.273266
52.675976
116.330872
134.563240
140.046722
166.155045
92.596977
84.184174
37.155506
40.046148
93.493294
80.262627
104.556824
51.441017
53.230042
73.592201
53.075180
56.272980
154.647064
39.982960
38.751867
37.316269
24.881607
47.661819
63.870613
39.844131
43.672165
50.680981
86.669258
36.927322
41.497309
43.656078
60.529209
81.112312
424.859253
347.399933
150.157089
120.051064
70.899517
75.520828
86.083221
166.570969
255.407806
308.504028
139.884872
144.387665
167.614395
224.156418
105.637726
53.646023
51.864014
134.422867
142.432739
101.914978
96.031090
90.326500
43.505867
46.399338
56.825157
45.881775
53.252968
155.683289
117.958778
165.500046
126.862312
106.615021
66.769047
78.880486
66.509727
56.475086
84.375046
53.772354
105.010231
99.824928
92.636986
128.987671
99.124352
189.899658
221.700500
117.201027
72.622326
69.894703
100.941826
203.260498
188.900742
60.440163
78.437408
113.462524
119.889587
123.730217
63.521770
46.776100
38.593782
138.582870
52.729240
40.442015
78.668396
62.845161
49.599796
82.772667
164.286072
37.285145
116.969063
60.526764
81.814255
90.698395
82.469933
108.559608
164.782379
54.575020
23.924248
52.176109
36.287380
165.426544
163.517822
110.056892
132.026642
78.035439
25.599551
23.133687
81.617828
17.581145
117.982048
135.228271
80.422394
64.200047
177.013702
78.113167
106.330338
33.169741
55.836205
36.224928
22.762074
85.622910
19.197695
30.065151
46.889942
104.487503
35.194416
117.590324
117.839302
106.011078
51.128765
76.356133
236.405579
165.910538
36.937479
53.573830
58.694633
14.862384
136.237831
117.839394
199.938950
103.472725
144.987808
86.768486
107.581741
92.500793
51.960926
39.894812
42.746723
92.598450
150.843018
163.007126
132.398430
99.621628
32.387402
36.602018
48.358692
82.531570
128.358307
126.497849
215.577866
84.092400
17.295246
56.800579
86.828300
44.174702
95.670013
72.931591
45.036221
120.926880
130.643234
74.186852
96.867081
45.903889
78.626457
145.844894
111.567802
48.439320
39.615318
77.391808
81.834190
28.550608
121.195549
40.307421
43.205261
21.346308
44.775608
40.790791
68.434692
100.588005
111.364784
50.701061
69.271656
88.161537
109.612862
161.918274
169.959915
295.773712
261.875702
235.371887
60.007713
36.607922
80.123833
71.392395
48.323425
33.334448
48.994270
89.648361
144.933395
105.127640
238.140656
349.285309
226.832520
169.224106
122.841835
36.630819
87.682510
27.620577
80.030952
30.802654
66.638317
150.020706
100.200638
172.723969
215.349197
459.288483
181.827240
245.821075
190.388748
106.099258
45.984562
124.013412
48.224464
87.911407
110.429626
79.830528
377.926666
48.053974
47.539642
68.753590
51.979359
57.915600
86.402710
92.649071
89.588608
67.879700
110.747978
76.754631
121.133209
139.785370
125.683235
114.199165
247.608521
107.628983
112.627113
106.232346
110.352402
78.020958
78.610207
90.078613
42.757656
62.195511
236.047394
75.225700
53.031788
53.404724
65.822674
49.328598
35.980335
31.711657
28.488411
76.634674
65.265041
50.356140
43.035473
37.062080
64.041882
65.992336
24.218313
100.853668
69.649704
108.601112
75.593658
80.488754
35.632782
45.266708
47.827332
91.161385
178.478348
45.020306
122.420013
137.718826
45.641239
198.500275
63.093555
89.373192
76.077492
55.932991
82.714104
126.479614
179.855286
116.519371
72.904968
61.710175
90.621468
76.902306
97.740059
61.460522
72.572834
61.508366
100.417206
119.627106
60.194893
85.974121
103.470291
127.860420
134.744118
43.588879
53.191315
55.710789
121.352570
62.202209
121.735619
70.127434
63.675095
39.063128
51.088833
174.574280
196.898788
396.804810
297.825684
175.274307
46.979660
70.000050
185.438889
64.994415
34.404654
165.162964
266.728363
455.254913
192.854050
177.238022
49.226803
58.212059
74.386726
111.021072
49.854198
49.903721
203.507721
164.174606
67.349926
311.833801
71.830975
144.343231
77.839798
48.110870
89.217567
97.740150
191.602142
194.643158
62.765079
39.180185
49.725819
38.252998
81.380646
86.638779
20.033356
59.477074
121.185753
74.650421
29.566118
105.939629
42.483662
98.333450
95.145180
44.579445
59.406811
116.456390
54.760456
46.802868
20.232022
87.670708
39.182617
23.979692
116.588020
93.814964
81.385162
157.588577
118.662582
64.377548
111.035042
54.779068
98.657272
76.201454
82.620842
79.243332
157.421280
188.459091
85.454857
179.436752
71.299294
138.680862
38.490414
53.071026
40.910776
63.949600
101.987930
72.732067
105.204025
103.627556
93.240295
63.985703
202.673569
115.787987
50.668911
20.475492
81.345345
37.583879
53.412991
63.758335
79.214355
73.897877
70.113350
96.734497
75.194939
137.977348
406.984558
260.642899
227.230331
106.478027
101.208961
66.183403
162.210419
73.453648
303.697571
464.968689
473.541779
189.486801
254.852646
122.978432
86.776123
115.416504
121.354858
73.739880
75.719299
193.574722
485.009705
50.454132
107.459259
121.703316
127.242027
195.877487
79.526276
153.832062
267.732605
69.368389
172.820221
71.792328
76.849854
128.105545
74.254471
72.618828
61.623749
61.592262

