# vtk DataFile Version 3.1
Tetrahedral Mesh Visualization
ASCII
DATASET UNSTRUCTURED_GRID

POINTS 277 FLOAT
0.000000 1.378113 1.754166
0.000000 0.000000 0.000000
1.997659 0.009860 0.006699
0.000000 1.666667 0.000000
2.421021 0.005572 1.742328
0.000000 0.000000 1.666667
1.690709 2.479608 0.010760
2.998662 2.455935 2.342362
3.987029 5.015946 0.019640
3.073422 5.007010 1.670338
5.204508 5.007846 1.625236
3.478935 3.191093 0.016713
5.389317 3.316481 0.007584
5.980307 5.012797 0.005844
7.337903 3.341028 -0.010201
6.957348 5.012624 1.326279
9.249964 2.198265 2.004881
8.678066 5.013449 1.595922
9.321535 3.362049 -0.025468
10.642628 5.032795 1.628619
11.309210 3.382621 -0.049026
11.101592 1.905294 1.508856
10.651133 1.708543 -0.046936
12.642312 1.728042 -0.066513
13.307301 3.398116 -0.062500
12.960415 1.931916 1.426582
14.639169 1.735133 -0.087055
13.975497 0.068148 -0.086715
15.457769 2.206119 1.598361
15.322683 0.062148 1.565766
13.327983 0.060288 1.589518
17.275869 0.060865 1.509472
16.636452 1.737366 -0.098321
17.960295 0.062117 -0.108257
15.973103 0.063630 -0.093798
18.629625 1.726611 -0.109400
18.981224 0.054566 1.211077
19.947975 0.048235 -0.125434
16.742096 0.053204 3.205236
19.008688 0.048616 3.006033
17.712881 2.733182 2.849263
18.024736 0.050177 4.897975
16.710508 1.711633 4.907625
16.023199 0.049008 4.905924
14.693023 0.059823 3.241546
15.785065 2.940500 3.263593
18.764795 1.743194 4.896156
17.352423 3.378937 4.904410
19.327194 3.433854 4.894948
19.347445 5.043267 3.237885
21.045406 3.733765 4.866216
21.351219 5.048714 3.196117
19.628347 2.538774 2.250365
20.646074 5.046294 1.545083
21.916685 2.559747 2.319676
22.646009 5.050045 1.496744
23.230324 3.426353 -0.184492
23.968182 2.482367 2.091283
24.934053 3.715804 -0.234325
24.931185 1.919216 -0.233663
25.961246 2.539582 1.468134
27.178757 1.736143 -0.304837
26.636753 3.435666 -0.281897
29.235538 0.026404 1.249290
27.916216 0.039263 -0.331830
29.223600 1.696203 -0.366894
30.939737 0.021990 0.886480
31.909655 0.030305 -0.475526
31.217220 1.689702 -0.440840
29.911715 0.031314 -0.401837
33.182476 1.689184 -0.520626
33.914127 0.040690 -0.549911
32.644379 0.030890 1.107290
34.566833 0.042784 1.107792
34.979996 2.440215 1.955495
36.483662 0.060536 1.158607
35.163731 0.032819 2.784226
36.854652 0.045067 2.875639
38.357075 2.552969 4.316004
37.669392 2.224208 1.519122
38.294964 0.055148 1.822410
37.919098 0.083793 -0.704308
38.064121 0.019849 4.288752
36.079254 0.029376 4.363786
36.625755 1.781586 4.359107
35.003666 1.357140 4.413056
34.912701 3.155315 4.427489
36.815228 3.516667 4.364850
34.061695 5.024027 4.465581
32.756165 3.323784 4.509516
33.280640 5.028542 2.841516
32.062546 5.022965 4.542382
35.160862 5.033470 2.820539
32.189953 2.629856 1.952016
34.545006 5.038529 1.138809
32.542290 3.361605 -0.487714
33.225891 0.034075 2.789459
30.999317 0.024493 2.677157
31.390779 1.673952 4.560354
33.319695 1.630309 4.484287
30.734734 3.341309 4.589039
28.724239 3.349650 4.663321
29.400610 1.685387 4.638099
30.010126 2.522772 2.088875
27.954155 2.518178 2.157455
26.721375 3.361104 4.721995
27.392536 1.693174 4.690288
24.640165 5.034550 1.446872
21.947224 5.043490 -0.157073
21.280939 3.386799 -0.139735
22.676739 1.730158 -0.167198
19.961643 5.051047 -0.120024
19.297205 3.388970 -0.110676
18.654015 5.050312 1.576073
17.973803 5.063163 -0.090735
17.304180 3.400985 -0.097010
15.968949 5.073232 -0.071569
16.653303 5.054264 1.585951
14.647971 5.058522 1.604694
13.698403 3.010109 3.204181
13.019881 1.363042 4.937447
12.681928 0.047372 3.264945
14.028313 0.049718 4.923955
11.294688 1.645702 4.954300
10.673385 0.029204 3.284461
12.028790 0.039598 4.941300
10.026324 0.017681 4.952506
11.324616 0.044900 1.609259
9.306435 0.025793 1.633401
9.982447 0.036977 -0.049736
8.665758 1.687751 -0.021085
7.971507 5.016229 -0.011988
9.967963 5.035951 -0.026055
11.227021 2.673911 3.243821
9.248803 5.011348 3.284925
10.751552 3.332847 4.962186
11.306903 5.030915 3.293077
10.004643 5.013192 4.973241
12.009809 5.031142 4.955624
8.004238 4.999138 5.000468
8.747084 3.393897 4.982454
6.964227 5.001318 3.117488
5.365805 3.358738 5.006237
6.005882 4.991520 5.009718
7.040600 3.676505 4.999472
5.143174 2.367919 3.142870
4.623677 4.998677 3.309758
3.493451 3.184819 5.014853
4.004596 4.990911 5.020047
2.369043 4.998752 3.299535
4.826006 1.613850 0.008436
4.895503 -0.004692 1.878780
6.703971 1.657292 -0.007227
7.006288 2.564508 2.185470
8.662465 0.012076 3.304389
17.344316 5.045675 3.248839
15.338834 5.050600 3.264096
16.030123 5.041899 4.924341
14.738456 1.659101 4.919177
15.295662 3.349990 4.915867
11.981697 0.055442 -0.067495
15.303195 3.405773 -0.082943
13.965873 5.074242 -0.048452
12.642222 5.047286 1.618071
13.326677 5.043396 3.280540
7.234054 0.005123 1.673134
6.678226 -0.005127 3.360340
4.919504 1.638390 4.998138
6.014875 -0.013976 4.977628
4.918344 -0.004426 3.655942
4.011535 -0.005309 5.000123
7.058254 1.881694 4.986028
8.021721 0.002513 4.969491
9.288693 1.700668 4.969328
21.046238 1.945864 4.859403
22.761059 3.438499 4.822570
24.062361 5.040329 4.789711
24.718851 3.379242 4.768150
23.353649 5.043404 3.143874
27.352079 5.025605 3.044839
26.637787 5.039032 1.398053
25.354082 5.034384 3.094615
35.066963 1.658814 -0.597111
36.748451 1.524792 -0.654073
40.015034 3.306994 2.904645
39.986500 1.696956 1.859648
38.282631 5.063728 1.873315
39.967007 3.330104 1.183657
40.001076 5.064458 2.631992
38.050201 5.037433 4.344210
40.043121 5.040154 4.304626
40.051361 3.368984 4.284848
40.059391 1.699799 4.253445
40.013622 0.051787 2.572049
39.960690 0.072890 0.912058
39.924320 0.095492 -0.750170
39.920654 1.760287 -0.728389
39.911587 3.416968 -0.718632
38.219685 2.548093 -0.675977
37.904278 5.066912 -0.655556
39.953381 5.073665 0.960064
36.847309 5.048595 2.920527
36.464218 5.049711 1.207924
36.418640 3.240785 -0.623663
35.897717 5.056671 -0.591455
34.498363 3.346767 -0.563862
33.896530 5.039556 -0.532903
30.563564 3.359932 -0.413621
29.914230 5.032028 -0.385273
31.900555 5.031153 -0.460009
30.613945 5.025248 1.260402
28.582108 3.369340 -0.345847
26.744162 0.026260 3.096117
27.238358 0.027434 1.386170
25.374514 1.709756 4.747077
24.053089 0.037105 4.783792
26.062685 0.038724 4.730633
25.022875 0.037267 3.440741
23.312531 1.741533 4.808949
23.291832 0.037375 3.195520
21.281628 0.049690 3.166986
22.045261 0.052493 4.841609
20.040867 0.060139 4.876509
18.034250 5.042501 4.909579
20.042255 5.046659 4.889452
22.709867 0.032649 1.520870
24.983816 0.032141 1.654261
23.934132 0.020470 -0.200652
25.927794 0.024438 -0.261520
25.934120 5.038841 -0.253805
25.726034 2.267808 3.229994
28.628479 5.023414 1.332722
27.932241 5.037831 -0.313829
26.065880 5.032065 4.740139
11.967732 5.054411 -0.041998
13.017655 3.152830 4.940988
14.019521 5.036785 4.940890
22.054504 5.044634 4.845200
28.754408 0.027710 2.966075
29.342976 5.016688 2.981194
30.067905 5.012620 4.619508
31.323761 5.024823 2.905886
32.081711 0.017955 4.521591
34.075237 0.022984 4.444685
36.050610 5.030079 4.400493
32.589802 5.034281 1.189795
20.631168 1.715729 -0.130000
20.704916 0.048588 1.484580
23.940165 5.033434 -0.205193
28.066229 5.015868 4.694419
39.901558 5.082083 -0.708368
3.187810 1.459515 5.011093
0.000000 3.103853 1.750106
0.000000 5.000000 1.666667
0.000000 3.333333 0.000000
1.999863 5.012566 0.014262
0.000000 5.000000 0.000000
0.000000 5.000000 3.333333
0.000000 0.000000 3.333333
1.700732 2.467918 5.010691
3.035310 -0.003854 3.402087
2.000135 -0.001265 5.010878
0.000000 2.403264 3.370902
0.000000 1.666667 5.000000
0.000000 3.333333 5.000000
0.000000 0.000000 5.000000
28.070944 0.029944 4.675351
30.079912 0.023499 4.604468
35.914490 0.061463 -0.637424
40.063747 0.025937 4.227982
7.987238 0.021147 -0.027950
2.002181 4.993488 5.020116
3.153384 1.466648 0.004861
3.986526 0.004645 0.000758
21.938566 0.028709 -0.149436
0.000000 5.000000 5.000000
5.978412 0.005711 -0.010807

CELLS 734 3670
4 0 1 2 3
4 0 4 2 5
4 0 3 2 6
4 4 6 0 2
4 4 6 7 0
4 8 9 10 11
4 12 13 14 15
4 16 17 14 18
4 19 20 18 21
4 20 22 21 23
4 24 25 26 23
4 25 27 26 23
4 26 28 29 30
4 28 29 31 32
4 33 34 32 31
4 31 33 35 32
4 31 33 36 35
4 33 37 36 35
4 38 39 40 31
4 41 42 43 38
4 44 42 45 38
4 44 42 38 43
4 46 38 42 41
4 46 47 40 48
4 49 50 51 52
4 53 54 51 55
4 56 54 55 57
4 56 58 59 57
4 60 59 61 62
4 63 61 64 65
4 66 67 68 69
4 67 70 71 72
4 73 74 75 76
4 74 77 75 76
4 77 78 79 80
4 79 81 75 80
4 77 78 80 82
4 77 83 76 84
4 83 85 76 84
4 85 86 74 84
4 74 86 87 84
4 88 89 86 90
4 91 89 88 90
4 86 88 90 92
4 90 86 92 74
4 86 89 74 90
4 93 94 95 74
4 70 74 72 93
4 70 73 71 72
4 74 96 73 72
4 66 97 93 72
4 96 97 72 93
4 96 98 97 93
4 85 96 74 99
4 96 98 93 99
4 98 89 100 93
4 101 102 100 103
4 104 105 101 106
4 107 58 57 60
4 58 107 57 56
4 53 108 109 55
4 56 110 109 54
4 53 111 109 108
4 112 53 109 52
4 111 112 113 53
4 112 111 113 114
4 115 116 114 117
4 40 28 115 117
4 45 117 118 28
4 119 28 25 44
4 120 44 121 122
4 123 121 124 125
4 125 123 126 124
4 127 128 21 124
4 16 129 128 21
4 16 18 14 130
4 16 17 18 19
4 131 17 132 18
4 16 19 18 21
4 133 16 19 134
4 135 134 133 136
4 135 137 136 138
4 137 134 139 140
4 141 142 143 144
4 145 146 147 7
4 142 148 147 146
4 7 146 147 149
4 10 7 9 146
4 145 150 7 151
4 152 151 150 153
4 16 128 154 124
4 124 21 121 133
4 25 28 30 44
4 28 38 45 40
4 45 47 40 42
4 155 45 156 47
4 157 156 47 155
4 155 45 40 117
4 45 42 158 159
4 44 42 43 158
4 119 45 158 159
4 120 44 158 119
4 25 127 21 121
4 25 27 160 30
4 127 25 160 30
4 25 127 121 30
4 44 25 121 30
4 28 30 44 29
4 119 28 44 45
4 119 28 118 25
4 28 24 26 161
4 26 32 29 28
4 28 31 29 38
4 46 38 41 39
4 46 38 39 40
4 28 117 40 45
4 118 28 117 161
4 162 24 118 161
4 118 119 163 164
4 136 119 164 163
4 25 133 21 163
4 128 16 21 124
4 165 166 153 154
4 166 167 168 169
4 167 168 169 170
4 171 168 172 166
4 124 173 126 154
4 123 121 133 124
4 120 125 122 121
4 122 158 44 43
4 47 46 40 42
4 52 50 174 48
4 175 50 174 54
4 176 175 177 178
4 179 60 180 181
4 64 69 63 65
4 68 72 67 66
4 70 73 182 71
4 74 79 183 75
4 184 78 185 79
4 79 184 186 187
4 186 184 188 187
4 184 189 190 191
4 184 78 79 186
4 78 189 184 191
4 189 184 190 188
4 184 78 191 192
4 184 78 192 185
4 192 78 80 185
4 193 80 194 185
4 195 81 196 194
4 81 79 196 194
4 197 187 196 198
4 187 79 185 196
4 79 184 187 185
4 197 199 187 198
4 199 197 187 200
4 199 200 187 186
4 78 201 79 186
4 189 201 87 78
4 202 201 79 74
4 201 74 92 87
4 201 202 92 74
4 201 202 79 186
4 202 203 74 79
4 202 198 203 79
4 204 202 199 203
4 202 203 205 74
4 202 204 205 203
4 182 203 74 205
4 74 203 183 79
4 79 203 183 198
4 79 81 198 183
4 81 79 198 196
4 187 79 196 198
4 202 198 79 186
4 202 204 94 205
4 94 95 205 206
4 207 208 209 210
4 208 207 211 210
4 104 103 211 65
4 104 60 212 213
4 214 215 216 217
4 218 219 220 221
4 222 174 220 221
4 46 39 222 174
4 52 46 40 48
4 40 49 52 48
4 53 49 52 113
4 40 49 155 113
4 155 45 47 40
4 157 47 223 155
4 49 223 224 48
4 52 50 51 54
4 175 54 57 178
4 218 175 54 57
4 225 219 54 57
4 218 175 57 177
4 57 217 219 218
4 219 225 226 57
4 225 227 226 57
4 59 110 57 227
4 59 60 61 228
4 61 60 213 228
4 64 61 213 228
4 63 61 213 64
4 61 104 211 65
4 180 60 104 62
4 58 229 62 180
4 58 60 180 62
4 60 61 104 62
4 60 226 230 212
4 226 60 213 212
4 60 104 212 230
4 179 60 230 104
4 104 211 231 62
4 180 229 62 232
4 180 232 62 231
4 179 60 104 180
4 233 181 105 179
4 181 105 179 230
4 105 214 106 230
4 105 214 230 177
4 215 214 218 217
4 215 217 218 219
4 218 215 219 221
4 218 175 174 54
4 39 52 220 174
4 39 46 52 174
4 115 52 112 35
4 28 115 117 161
4 162 118 116 161
4 24 162 118 163
4 20 19 234 163
4 25 133 163 119
4 120 119 158 235
4 236 119 235 159
4 235 119 158 159
4 119 235 133 136
4 138 235 236 164
4 45 47 42 159
4 46 38 40 42
4 49 50 52 48
4 237 175 176 178
4 181 233 177 176
4 180 179 231 104
4 207 103 65 211
4 207 103 68 65
4 65 66 103 68
4 103 66 97 93
4 66 103 97 63
4 213 104 63 238
4 238 97 103 63
4 104 102 103 238
4 104 106 212 230
4 214 212 106 230
4 214 212 216 106
4 214 212 217 216
4 214 212 230 217
4 226 217 230 212
4 226 60 230 57
4 181 60 57 230
4 179 105 104 230
4 179 105 101 104
4 104 239 103 101
4 239 101 240 100
4 91 241 240 100
4 241 239 240 100
4 239 241 103 100
4 103 210 93 241
4 103 207 93 210
4 210 103 231 239
4 103 239 104 231
4 103 104 63 65
4 65 66 63 103
4 65 66 68 69
4 68 72 66 93
4 96 98 242 97
4 85 96 99 243
4 85 86 99 74
4 86 89 99 74
4 88 86 244 92
4 74 86 92 87
4 201 244 87 92
4 244 86 87 92
4 90 74 92 94
4 94 95 206 245
4 95 209 206 245
4 245 207 95 209
4 208 232 231 211
4 180 104 231 62
4 181 60 107 57
4 54 175 51 178
4 50 52 174 54
4 246 36 52 247
4 246 36 37 35
4 52 31 36 35
4 31 39 52 36
4 39 46 222 41
4 39 222 174 220
4 174 218 220 221
4 218 219 54 220
4 225 219 220 54
4 56 110 54 57
4 110 56 59 57
4 60 59 226 228
4 60 226 213 228
4 57 217 230 226
4 214 217 230 218
4 218 57 230 177
4 181 105 230 177
4 179 60 181 230
4 58 107 180 60
4 229 107 58 248
4 229 107 180 58
4 60 58 59 62
4 58 107 56 248
4 108 56 109 55
4 108 56 55 248
4 107 56 55 57
4 107 181 57 178
4 57 181 177 178
4 181 176 177 178
4 233 181 177 105
4 249 239 101 240
4 91 89 241 100
4 89 91 241 90
4 210 245 93 241
4 245 241 90 93
4 93 94 90 245
4 74 202 92 94
4 205 204 94 206
4 202 198 199 203
4 202 198 186 199
4 199 197 200 250
4 199 186 187 198
4 200 186 188 187
4 184 189 186 188
4 201 189 87 244
4 189 201 78 186
4 201 78 79 87
4 189 78 184 186
4 186 79 187 198
4 74 201 79 87
4 74 79 84 87
4 79 78 84 87
4 77 78 84 79
4 74 77 84 79
4 74 85 84 76
4 83 243 76 85
4 85 96 243 76
4 73 96 74 76
4 96 93 74 99
4 89 93 99 74
4 93 94 74 90
4 93 94 245 95
4 207 95 68 93
4 95 70 68 93
4 95 70 74 205
4 74 70 182 205
4 94 95 74 205
4 241 89 90 93
4 104 179 231 239
4 181 60 180 107
4 107 57 55 178
4 57 54 55 178
4 53 49 51 52
4 40 49 113 52
4 155 47 223 48
4 45 47 159 156
4 119 156 45 159
4 120 44 119 121
4 16 173 124 154
4 166 167 169 145
4 145 7 147 251
4 9 7 252 149
4 253 254 252 255
4 256 253 255 254
4 6 9 252 255
4 253 257 149 252
4 7 258 259 260
4 260 261 251 170
4 169 260 251 170
4 169 251 167 170
4 166 167 145 171
4 16 22 18 130
4 25 24 20 23
4 24 25 118 28
4 119 156 118 45
4 119 28 45 118
4 119 45 44 158
4 44 38 28 29
4 25 28 26 30
4 25 24 26 28
4 24 20 234 163
4 162 24 234 163
4 163 119 118 25
4 235 135 133 136
4 135 134 140 133
4 145 141 153 144
4 145 260 169 151
4 0 258 4 5
4 259 258 262 263
4 264 259 262 263
4 258 7 262 0
4 260 258 259 261
4 258 261 263 259
4 261 258 263 265
4 261 260 251 259
4 167 251 169 145
4 145 260 251 169
4 166 167 171 168
4 16 171 153 140
4 137 135 136 134
4 138 135 235 136
4 235 138 136 164
4 236 119 156 164
4 157 156 159 47
4 155 47 48 40
4 40 49 48 155
4 46 52 174 48
4 247 225 220 54
4 110 225 57 227
4 60 59 57 226
4 104 61 211 62
4 232 211 62 231
4 103 104 211 231
4 239 210 103 241
4 241 93 103 100
4 68 72 93 70
4 103 207 68 93
4 207 103 211 210
4 210 208 231 211
4 103 210 231 211
4 245 207 210 93
4 245 207 209 210
4 245 207 93 95
4 70 95 74 93
4 70 73 74 182
4 182 203 183 74
4 202 74 205 94
4 93 89 90 74
4 89 241 100 93
4 93 98 103 100
4 101 104 102 103
4 104 101 102 106
4 106 238 104 212
4 266 216 212 106
4 106 238 212 266
4 106 238 102 104
4 267 266 238 102
4 97 102 267 238
4 106 238 266 102
4 97 102 238 103
4 97 102 103 98
4 97 102 98 267
4 97 98 242 267
4 96 98 99 242
4 89 98 99 93
4 239 101 100 103
4 104 179 239 101
4 179 249 239 101
4 105 179 101 249
4 233 105 249 179
4 177 181 57 230
4 175 57 177 178
4 175 237 51 178
4 55 54 51 178
4 112 111 109 53
4 112 53 52 113
4 117 115 113 114
4 116 118 117 161
4 115 116 117 161
4 28 115 161 32
4 29 32 26 34
4 26 30 29 27
4 34 26 29 27
4 29 34 31 32
4 31 115 32 35
4 31 115 28 32
4 246 112 52 35
4 246 247 52 54
4 247 110 225 54
4 59 227 57 226
4 213 104 238 212
4 104 103 63 238
4 97 98 103 93
4 70 73 72 74
4 71 182 268 73
4 182 75 268 73
4 182 75 183 268
4 183 81 268 75
4 182 75 74 183
4 79 81 183 75
4 79 81 80 194
4 78 192 80 82
4 192 193 80 82
4 269 193 192 82
4 193 192 80 185
4 80 79 194 185
4 77 74 75 79
4 85 96 76 74
4 96 243 242 99
4 98 102 103 100
4 104 105 106 230
4 214 218 230 177
4 50 175 51 54
4 49 155 223 48
4 157 156 236 159
4 236 119 159 156
4 235 119 164 136
4 236 119 164 235
4 133 235 120 123
4 120 235 133 119
4 135 123 235 133
4 124 173 123 126
4 173 172 126 154
4 166 171 154 172
4 172 171 154 173
4 171 16 154 173
4 171 166 154 153
4 16 171 154 153
4 124 173 16 133
4 124 173 133 123
4 25 133 119 121
4 19 16 133 21
4 163 19 133 21
4 134 19 133 136
4 133 119 136 163
4 133 19 163 136
4 132 20 18 19
4 20 132 234 19
4 20 19 163 21
4 22 20 21 18
4 16 22 21 18
4 128 129 127 21
4 160 129 21 127
4 160 21 25 127
4 25 20 21 23
4 25 27 23 160
4 25 27 30 26
4 23 22 21 160
4 16 129 21 22
4 128 130 165 270
4 128 130 270 129
4 128 130 16 165
4 16 165 153 154
4 17 16 14 153
4 131 17 18 14
4 17 141 153 15
4 12 10 15 153
4 15 17 14 153
4 153 16 14 130
4 16 129 22 130
4 128 130 129 16
4 16 128 165 154
4 151 166 153 165
4 260 145 7 151
4 9 6 252 7
4 7 262 252 149
4 260 259 7 251
4 7 259 147 251
4 264 259 271 149
4 259 7 147 149
4 146 148 147 149
4 271 259 147 149
4 148 271 147 149
4 146 142 143 141
4 144 141 140 139
4 141 134 140 139
4 143 141 144 139
4 142 145 141 146
4 145 142 141 144
4 148 142 143 146
4 145 7 10 146
4 145 150 151 153
4 151 272 150 7
4 151 272 273 150
4 151 272 4 273
4 4 272 2 273
4 151 272 7 4
4 4 260 7 151
4 166 145 151 153
4 166 145 169 151
4 171 166 153 145
4 133 16 140 173
4 124 16 21 133
4 25 21 160 23
4 21 129 160 22
4 121 21 124 127
4 121 120 133 119
4 123 121 125 120
4 123 121 120 133
4 25 133 121 21
4 25 20 163 21
4 118 24 28 161
4 26 28 161 32
4 40 115 28 31
4 115 52 113 112
4 246 112 109 52
4 246 52 109 54
4 56 54 109 55
4 56 107 55 248
4 58 60 59 57
4 63 61 65 104
4 68 72 70 67
4 182 75 73 74
4 77 79 75 80
4 196 79 185 194
4 79 78 185 80
4 77 78 82 84
4 83 77 82 84
4 77 74 84 76
4 96 74 93 72
4 103 66 93 68
4 65 66 69 63
4 63 61 104 213
4 61 60 104 213
4 59 227 226 228
4 274 110 227 225
4 246 36 247 37
4 246 36 35 52
4 52 115 40 31
4 28 31 38 40
4 44 42 158 45
4 120 44 122 158
4 135 133 140 173
4 171 16 173 140
4 171 144 153 140
4 141 144 140 153
4 10 141 15 153
4 10 12 15 13
4 10 8 12 13
4 8 10 12 11
4 8 9 11 255
4 9 253 149 252
4 257 262 149 252
4 262 259 149 7
4 258 7 4 260
4 259 258 7 262
4 262 0 7 252
4 0 6 7 252
4 254 6 252 255
4 0 3 6 252
4 6 3 254 252
4 272 6 11 7
4 4 6 272 7
4 4 6 2 272
4 9 6 11 255
4 9 253 252 255
4 262 264 257 149
4 257 264 275 271
4 259 264 262 149
4 257 264 271 149
4 9 146 7 149
4 10 7 11 9
4 7 12 10 11
4 145 150 153 12
4 12 145 10 153
4 145 146 10 141
4 145 142 147 146
4 171 145 153 144
4 171 142 145 144
4 142 171 145 167
4 142 145 147 167
4 167 145 147 251
4 145 260 7 251
4 145 150 12 7
4 12 145 7 10
4 12 152 153 14
4 152 153 14 130
4 152 151 153 165
4 165 152 276 270
4 152 151 165 276
4 165 152 270 130
4 152 151 276 150
4 276 150 151 273
4 272 7 11 150
4 7 12 11 150
4 153 150 152 12
4 165 16 153 130
4 165 152 130 153
4 15 12 153 14
4 13 131 14 15
4 17 131 15 14
4 17 132 18 19
4 25 24 163 20
4 25 24 118 163
4 119 156 164 118
4 118 117 45 156
4 155 45 117 156
4 113 40 117 155
4 50 49 224 48
4 49 50 224 51
4 50 237 224 51
4 237 50 175 51
4 52 54 220 174
4 52 247 220 54
4 39 247 220 52
4 39 247 52 36
4 115 52 35 31
4 40 115 52 113
4 40 115 113 117
4 115 112 113 114
4 53 52 51 54
4 54 53 109 55
4 52 53 109 54
4 110 246 109 54
4 247 110 54 246
4 247 110 274 225
4 246 274 37 247
4 247 110 246 274
4 110 225 54 57
4 57 217 226 219
4 57 217 218 230
4 219 218 54 57
4 218 54 174 220
4 46 39 52 40
4 39 31 52 40
4 38 42 45 40
4 28 38 44 45
4 121 25 44 119
4 123 135 173 133
4 134 153 140 16
4 134 16 140 133
4 137 135 134 140
4 134 153 141 140
4 134 153 16 17
4 16 17 19 134
4 134 153 17 141
4 153 145 10 141
4 6 9 11 7
4 258 7 0 4
4 1 0 2 5

CELL_TYPES 734
10
10
10
10
10
10
10
10
10
10
10
10
10
10
10
10
10
10
10
10
10
10
10
10
10
10
10
10
10
10
10
10
10
10
10
10
10
10
10
10
10
10
10
10
10
10
10
10
10
10
10
10
10
10
10
10
10
10
10
10
10
10
10
10
10
10
10
10
10
10
10
10
10
10
10
10
10
10
10
10
10
10
10
10
10
10
10
10
10
10
10
10
10
10
10
10
10
10
10
10
10
10
10
10
10
10
10
10
10
10
10
10
10
10
10
10
10
10
10
10
10
10
10
10
10
10
10
10
10
10
10
10
10
10
10
10
10
10
10
10
10
10
10
10
10
10
10
10
10
10
10
10
10
10
10
10
10
10
10
10
10
10
10
10
10
10
10
10
10
10
10
10
10
10
10
10
10
10
10
10
10
10
10
10
10
10
10
10
10
10
10
10
10
10
10
10
10
10
10
10
10
10
10
10
10
10
10
10
10
10
10
10
10
10
10
10
10
10
10
10
10
10
10
10
10
10
10
10
10
10
10
10
10
10
10
10
10
10
10
10
10
10
10
10
10
10
10
10
10
10
10
10
10
10
10
10
10
10
10
10
10
10
10
10
10
10
10
10
10
10
10
10
10
10
10
10
10
10
10
10
10
10
10
10
10
10
10
10
10
10
10
10
10
10
10
10
10
10
10
10
10
10
10
10
10
10
10
10
10
10
10
10
10
10
10
10
10
10
10
10
10
10
10
10
10
10
10
10
10
10
10
10
10
10
10
10
10
10
10
10
10
10
10
10
10
10
10
10
10
10
10
10
10
10
10
10
10
10
10
10
10
10
10
10
10
10
10
10
10
10
10
10
10
10
10
10
10
10
10
10
10
10
10
10
10
10
10
10
10
10
10
10
10
10
10
10
10
10
10
10
10
10
10
10
10
10
10
10
10
10
10
10
10
10
10
10
10
10
10
10
10
10
10
10
10
10
10
10
10
10
10
10
10
10
10
10
10
10
10
10
10
10
10
10
10
10
10
10
10
10
10
10
10
10
10
10
10
10
10
10
10
10
10
10
10
10
10
10
10
10
10
10
10
10
10
10
10
10
10
10
10
10
10
10
10
10
10
10
10
10
10
10
10
10
10
10
10
10
10
10
10
10
10
10
10
10
10
10
10
10
10
10
10
10
10
10
10
10
10
10
10
10
10
10
10
10
10
10
10
10
10
10
10
10
10
10
10
10
10
10
10
10
10
10
10
10
10
10
10
10
10
10
10
10
10
10
10
10
10
10
10
10
10
10
10
10
10
10
10
10
10
10
10
10
10
10
10
10
10
10
10
10
10
10
10
10
10
10
10
10
10
10
10
10
10
10
10
10
10
10
10
10
10
10
10
10
10
10
10
10
10
10
10
10
10
10
10
10
10
10
10
10
10
10
10
10
10
10
10
10
10
10
10
10
10
10
10
10
10
10
10
10
10
10
10
10
10
10
10
10
10
10
10
10
10
10
10
10
10
10
10
10
10
10
10
10
10
10
10
10
10
10
10
10
10
10
10
10
10
10
10
10
10
10
10
10
10
10
10
10
10
10
10
10
10
10
10
10
10
10
10
10
10
10
10
10
10
10
10
10
10
10
10
10
10
10
10
10
10
10
10
10
10
10
10
10
10
10
10
10
10
10
10
10

CELL_DATA 734
SCALARS potentialEnergy FLOAT 1
LOOKUP_TABLE default
67.735336
33.170973
83.900383
98.816147
87.026909
54.972687
58.568321
63.500912
121.242043
49.255058
23.379251
31.696968
40.348490
70.170498
101.956795
153.112122
59.043282
116.396996
134.894257
40.044750
140.210693
76.133286
79.554008
111.981857
69.021721
26.945732
232.309982
60.610531
212.386047
78.344666
52.353607
44.923817
172.023682
148.471466
38.732903
38.999575
165.413086
99.282417
60.454750
38.230949
59.488266
140.094101
41.329260
65.185806
73.604912
101.956886
79.980507
83.692749
44.074730
100.361900
95.004555
131.693909
138.331497
119.005775
77.505424
97.855156
177.180023
111.442200
34.168314
123.701813
61.851768
103.819160
150.640411
221.129913
73.519123
130.524994
38.733749
124.405754
52.968098
48.013058
41.717098
24.015111
42.802277
63.752666
86.045013
59.499752
88.201141
73.752285
100.957993
84.814087
56.056164
49.724239
81.045624
43.825428
59.415894
79.437195
33.052370
24.719870
96.867065
117.733315
70.599945
96.801483
23.104556
129.963928
89.391815
61.442680
56.867889
78.107269
41.420031
22.458848
44.018463
60.422672
44.279648
94.826767
38.636736
51.924763
74.857140
115.287758
72.349094
63.087418
31.674551
54.990776
134.049950
103.319656
205.932175
97.920578
202.314651
110.322029
46.690960
86.830925
94.037148
70.932278
134.262215
63.514732
74.597702
60.480431
73.647087
70.895950
40.742743
50.656551
144.469406
110.972687
101.048019
33.468843
65.661282
178.925995
42.855198
52.656227
147.372726
75.904198
59.157001
50.031540
91.709335
100.263550
117.229744
82.156700
45.729286
77.571541
139.396866
47.076511
42.873009
75.610085
95.784264
99.714287
72.563828
112.423538
72.291542
61.304550
92.094719
51.988453
49.999420
65.698231
39.104828
202.387695
41.390078
72.278221
52.963821
75.925446
49.298935
156.172577
117.932938
143.115570
147.529465
169.205673
92.556198
102.265511
52.771618
39.073032
110.354736
53.727291
63.184059
46.600910
65.028500
37.713591
40.953434
266.996796
99.870628
206.386017
75.926910
111.704353
146.662811
118.714157
72.550831
90.969681
96.237801
144.763412
94.552574
78.039841
63.497040
67.916862
70.346561
143.656219
124.158333
136.008148
100.954170
82.253143
32.447937
198.307709
78.123245
119.075684
46.340454
63.496323
76.255585
51.031170
43.714188
163.209869
73.872078
76.323761
29.584011
26.955544
29.562271
156.128906
63.943241
120.841644
77.291550
142.508026
43.963566
189.218704
424.270752
178.840927
85.807060
54.422092
86.088219
27.207319
94.436302
48.862652
76.689293
172.931183
37.893820
68.292965
134.441727
129.498131
156.149063
82.123840
31.733896
152.965347
89.249619
53.734653
51.048172
68.544395
124.927551
58.396980
81.421371
180.371277
40.941210
115.473289
65.191738
63.833469
84.000412
164.142410
52.553146
44.888226
87.655365
194.104874
85.480415
93.742218
58.621838
111.421364
216.725830
171.998566
141.179947
88.707428
28.283693
64.999947
205.977097
102.526428
145.834137
65.464855
66.275017
120.395821
111.933182
156.508682
27.001925
125.859055
26.700270
54.389988
49.325123
28.967163
33.635918
203.417252
136.568459
19.633862
80.533371
319.760681
182.554062
107.257935
188.103485
126.235649
231.747604
70.164021
65.594078
71.674046
168.225082
303.057953
270.464172
34.556408
107.058197
62.282898
122.129822
115.492569
161.360458
34.243687
42.711044
35.997257
120.171265
86.986259
44.441742
53.613396
44.190792
166.418839
115.593887
129.278023
105.316208
88.672356
67.994892
78.306519
87.878792
95.798973
96.963593
53.230721
18.105180
58.852280
85.522102
117.928818
30.147655
102.217133
52.013451
61.329086
31.027309
138.670486
71.267597
64.005074
98.195251
91.230873
110.284103
53.944672
32.471825
139.535034
118.696449
58.233055
83.950752
108.609779
82.800827
93.366600
54.384743
72.655121
70.742561
83.160942
55.980595
139.115494
60.225475
148.343216
53.020798
130.903328
189.129440
101.171188
27.970890
105.082047
111.620071
84.880501
152.011658
88.027916
63.746704
57.556572
40.253881
135.076805
66.579758
57.636036
117.547348
66.349865
80.411263
101.979362
34.020967
28.022062
60.267544
69.550026
48.383129
30.580164
42.982513
57.151993
44.845142
87.239021
28.058868
32.842144
33.284073
99.141487
57.418289
107.556175
75.849747
25.467953
100.025536
19.364133
77.409882
56.420731
54.199577
58.697857
44.412994
26.018597
40.455528
44.764099
84.329025
77.144691
86.706306
76.331139
57.543465
70.267323
91.900505
59.337063
158.195190
118.953484
296.697205
95.570930
61.451714
20.437488
84.269394
83.210831
138.538971
115.043304
154.229202
100.017265
150.054428
88.061172
71.833668
262.508667
224.394897
91.815796
74.291710
142.190140
136.815918
119.890549
35.978689
128.369957
189.027390
169.196426
126.376808
159.996048
48.535137
75.332664
35.587803
89.992882
204.656693
137.088638
59.340904
128.289619
230.046692
62.969574
81.832771
25.939221
80.616295
168.064301
96.217186
139.177048
45.871059
29.926243
105.245842
151.357422
56.180321
55.396633
179.762344
134.369698
57.934677
132.860863
64.689247
84.060959
58.287354
42.432922
47.097576
90.860146
107.958946
84.341064
166.761093
49.570667
109.802811
48.929680
169.062195
34.499481
95.323235
102.638885
87.841461
74.322678
80.052231
62.472221
95.010017
81.631996
61.957821
129.902092
93.698631
114.359718
53.890350
34.625872
74.963295
122.889984
55.741062
138.433960
111.782265
100.755623
188.729584
64.212360
89.916557
112.535744
56.449467
33.742466
89.070770
39.946308
85.289345
41.902367
28.339790
15.705492
16.745587
51.705521
60.903133
50.928944
98.599068
217.157059
143.974442
80.798820
99.241531
85.767296
39.564163
24.259964
47.166355
45.681965
290.843445
59.562893
44.264622
76.572098
44.680370
60.690578
39.096882
45.041759
20.863838
56.412323
51.323196
69.892803
68.323971
87.582191
81.759674
56.161823
46.046837
44.190720
35.056767
61.311863
49.285217
85.128899
51.670300
83.659058
57.874767
26.035805
127.238365
73.656078
131.514511
41.923399
156.329636
75.933350
23.523469
57.466839
19.427791
38.736408
50.210835
74.360130
21.822451
32.042845
36.119295
21.777460
22.572441
66.947807
96.315369
83.956215
74.316376
69.944092
134.458847
94.877350
136.964226
79.417244
55.572220
87.061707
96.118332
24.244834
33.805725
44.001598
69.507957
37.181278
80.333740
55.562069
160.224518
53.181179
38.263563
220.080688
314.923431
150.938995
32.806637
118.777588
92.190018
122.954460
304.712708
52.221420
166.593857
29.217848
119.995598
101.694466
104.582870
181.768555
130.317703
106.140190
87.647919
97.604721
80.288261
125.946091
68.645351
102.672188
56.448284
272.299683
214.871689
199.358994
75.255203
58.079304
62.360806
41.712757
69.790379
61.666187
42.154755
19.961839
40.336720
35.530781
126.213470
109.369614
84.576897
98.856384
34.878738
97.998077
42.104500
107.118301
141.641449
94.289894
91.247574
97.336800
102.630569
146.409073
96.974167
84.234200
86.053566
104.641579
87.013718
198.446472
58.988609
29.454283
108.236282
35.114021
28.669224
23.921516
40.695421
43.641743
39.734396
100.293121
25.415176
32.060495
48.377987
57.894421
25.653729
81.875397
131.438667
103.806473
107.324844
67.261147
49.670536
79.221672
82.816147
72.986217
60.657253
46.330391
138.063934
104.810097
104.282913
46.189533
34.686241
37.049793
92.127541
64.877975
100.956200
45.057186
59.301414
64.430248
148.037262
93.030998
97.578827
86.517548
85.787231
50.047569
102.722168
48.508545
286.817749
212.481628
129.389343
103.328087
52.066635
56.545849
61.999561
115.292244
115.980492
93.879410
152.509216
76.292160
100.366768
107.621849
97.301414
117.722221
114.427887
140.294846
136.834648
93.332497
121.743973
60.452271
61.840515
85.767448
101.431496
62.531513
135.211357
77.720039
61.656174
53.518383
20.079685
129.004745
74.715263
55.358204

