# vtk DataFile Version 3.1
Tetrahedral Mesh Visualization
ASCII
DATASET UNSTRUCTURED_GRID

POINTS 277 FLOAT
0.000000 1.378113 1.754166
0.000000 0.000000 0.000000
2.001203 0.010946 -0.009937
0.000000 1.666667 0.000000
2.421287 0.004953 1.720953
0.000000 0.000000 1.666667
1.695300 2.476500 -0.007070
3.001948 2.455274 2.312227
3.999113 5.013418 0.005439
3.074798 5.004686 1.650090
5.210900 5.009463 1.615121
3.492567 3.191475 -0.004614
5.413122 3.321374 -0.002716
6.001746 5.014704 0.005692
7.378674 3.363772 -0.005974
6.974620 5.015919 1.329064
9.262850 2.197272 2.008940
8.703938 5.022557 1.610453
9.366015 3.370342 -0.009388
10.673562 5.017284 1.656143
11.365968 3.357015 -0.004427
11.126452 1.880271 1.543991
10.696817 1.698244 -0.014382
12.697433 1.676599 -0.001021
13.371693 3.332491 0.013462
12.988242 1.867419 1.495863
14.703961 1.658454 0.021920
14.026536 -0.000560 -0.000309
15.478605 2.113709 1.729133
15.339090 -0.023380 1.680228
13.339702 -0.009542 1.657043
17.305815 -0.020562 1.679855
16.714581 1.655021 0.069076
18.046986 -0.014906 0.089924
16.043125 -0.011945 0.046817
18.723269 1.649016 0.115619
19.027075 -0.029262 1.432066
20.052618 -0.030346 0.136178
16.714037 -0.032639 3.358547
18.980707 -0.033429 3.221029
17.695660 2.656042 3.032244
17.936449 -0.033507 5.089923
16.625069 1.625631 5.064581
15.943875 -0.044468 5.041536
14.664131 -0.041251 3.344746
15.758692 2.850551 3.401549
18.669350 1.664178 5.108363
17.263332 3.305049 5.076440
19.228912 3.358686 5.114895
19.322092 4.972235 3.463262
20.941847 3.639944 5.154438
21.320431 4.962106 3.497046
19.632950 2.458613 2.487257
20.689259 4.956810 1.817868
21.917505 2.463567 2.659556
22.691536 4.941759 1.858584
23.359713 3.329200 0.215366
23.974703 2.384319 2.541466
25.067635 3.614352 0.271684
25.065193 1.822831 0.278423
25.996719 2.430604 2.043519
27.325829 1.621034 0.342417
26.772297 3.316276 0.333031
29.283016 -0.081679 2.014504
28.063036 -0.083191 0.373821
29.372856 1.595603 0.402264
31.006441 -0.064079 1.754971
32.064964 -0.047054 0.467983
31.375914 1.609853 0.456195
30.060247 -0.068195 0.412975
33.339550 1.606503 0.518969
34.065182 -0.044087 0.533932
32.692024 -0.056494 2.103503
34.603020 -0.056336 2.237730
34.974541 2.340899 3.118342
36.510559 -0.063029 2.431997
35.093678 -0.072121 3.953878
36.773239 -0.076990 4.164145
38.197773 2.398404 5.706946
37.690441 2.091034 2.863425
38.281616 -0.082071 3.209060
38.069710 -0.046877 0.673347
37.878616 -0.117363 5.666476
35.895390 -0.092688 5.598209
36.460575 1.651821 5.630157
34.839352 1.259891 5.572167
34.755424 3.060513 5.580812
36.664291 3.379356 5.645740
33.917053 4.935537 5.564774
32.604763 3.236388 5.506222
33.241875 4.939240 3.890907
31.911758 4.928860 5.492378
35.126587 4.926842 4.001821
32.193409 2.537973 2.917193
34.612549 4.945918 2.287575
32.702496 3.283643 0.513101
33.166454 -0.059991 3.825612
30.952757 -0.070594 3.544441
31.232279 1.577415 5.456386
33.158440 1.539694 5.521902
30.580746 3.244075 5.442639
28.581457 3.237489 5.387006
29.249229 1.573934 5.396190
30.007818 2.423594 2.891448
27.949631 2.407600 2.842017
26.583542 3.249905 5.327236
27.245771 1.578645 5.340279
24.689005 4.930098 1.930282
22.065945 4.948395 0.178602
21.396484 3.300079 0.169794
22.792580 1.647409 0.209064
20.060455 4.968471 0.143903
19.390739 3.309149 0.131514
18.684683 4.971655 1.788732
18.056736 4.983803 0.112470
17.384014 3.325345 0.086109
16.042475 4.983113 0.067453
16.675924 4.974193 1.745279
14.676673 4.981934 1.704235
13.686258 2.931964 3.286854
12.954978 1.294452 5.002634
12.653587 -0.017552 3.322799
13.950091 -0.041169 5.007378
11.248186 1.601134 4.989272
10.652369 0.000047 3.307308
11.966397 -0.022089 4.991889
9.980488 -0.009819 4.972790
11.335813 0.011852 1.642562
9.320506 0.023973 1.635482
10.020701 0.034763 -0.031323
8.703761 1.702688 -0.019797
8.011908 5.039022 0.007288
10.020761 5.037057 0.004760
11.218929 2.644491 3.276369
9.258565 5.014941 3.297453
10.721495 3.307087 4.990518
11.314776 5.003038 3.327383
9.995269 5.000639 4.997106
11.985968 4.990488 5.007559
7.994780 5.001613 4.989404
8.727827 3.390221 4.980812
6.965354 5.008383 3.113850
5.354605 3.357097 4.994610
5.993278 4.994327 5.002624
7.022433 3.677788 4.996299
5.144813 2.369059 3.123933
4.622753 4.994255 3.295902
3.486796 3.180541 4.993947
3.995849 4.992230 5.002668
2.370826 4.993501 3.285148
4.848794 1.617880 -0.006078
4.909264 -0.002383 1.857796
6.738317 1.684365 -0.012794
7.018393 2.575925 2.179716
8.651742 0.005508 3.304048
17.318106 4.974149 3.417642
15.318300 4.970127 3.383810
15.957178 4.967505 5.063209
14.663642 1.571110 5.026921
15.226133 3.264274 5.048112
12.021585 0.018726 -0.021514
15.376465 3.316299 0.049333
14.039618 4.995197 0.031294
12.675035 4.993799 1.676600
13.324406 4.980042 3.347252
7.249966 0.019231 1.663426
6.672855 -0.003520 3.350992
4.906661 1.636208 4.986564
5.997533 -0.007255 4.976055
4.915649 -0.003226 3.641924
3.997176 -0.003761 4.987345
7.039143 1.881968 4.977023
7.994024 -0.003914 4.969274
9.257426 1.688674 4.978420
20.929207 1.847792 5.162384
22.645159 3.339448 5.202154
23.938383 4.936487 5.242350
24.590281 3.271997 5.267525
23.316359 4.947740 3.547411
27.303759 4.917090 3.685506
26.680935 4.924881 2.000576
25.308754 4.931482 3.626031
35.225048 1.568823 0.586352
36.907356 1.406892 0.643550
39.955376 3.133688 4.408056
39.980076 1.533655 3.370022
38.307747 4.911790 3.269339
40.023441 3.161856 2.687415
39.967525 4.897503 4.143423
37.914406 4.873933 5.726110
39.910755 4.858878 5.809795
39.904812 3.195126 5.788555
39.888935 1.524717 5.769989
39.947433 -0.110145 4.079662
40.011623 -0.084861 2.422927
40.068825 -0.059726 0.757299
40.081165 1.605820 0.779372
40.093506 3.266715 0.795834
38.386311 2.418205 0.714959
38.095028 4.941918 0.730358
40.030636 4.917932 2.475024
36.803265 4.913971 4.212272
36.529129 4.927877 2.477525
36.588161 3.130004 0.641520
36.081684 4.946357 0.643902
34.663246 3.264968 0.582820
34.075741 4.957253 0.573804
30.715586 3.274716 0.444362
30.058496 4.936799 0.429999
32.067478 4.947560 0.505996
30.666403 4.935859 2.115382
28.724571 3.265697 0.383179
26.680763 -0.085581 3.712614
27.271057 -0.075333 2.032775
25.234262 1.595743 5.288815
23.912853 -0.070004 5.242157
25.915224 -0.082371 5.305095
24.950489 -0.071219 3.952763
23.186556 1.638342 5.227499
23.237953 -0.057340 3.604886
21.236341 -0.041000 3.476126
21.919710 -0.051014 5.189117
19.929604 -0.040064 5.133732
17.953705 4.970457 5.095850
19.955997 4.959804 5.148145
22.747856 -0.055446 1.893819
25.004776 -0.073892 2.161130
24.055824 -0.055817 0.245329
26.062662 -0.067397 0.305073
26.068419 4.938072 0.319450
25.664560 2.157320 3.788045
28.676058 4.916967 2.057620
28.061514 4.922836 0.372748
25.933910 4.920856 5.315539
12.035821 5.013885 0.008781
12.971423 3.089430 5.012701
13.970186 4.972237 5.030589
21.947611 4.953652 5.182547
28.693260 -0.086562 3.694547
29.293343 4.914982 3.745589
29.916845 4.913822 5.432585
31.273727 4.926894 3.807713
31.922209 -0.075522 5.472906
33.910866 -0.073725 5.535197
35.922234 4.907578 5.636221
32.652950 4.941615 2.196548
20.739689 1.637291 0.158889
20.741241 -0.037210 1.768546
24.074543 4.936319 0.242893
27.927971 4.910051 5.373404
40.089760 4.936354 0.810212
3.182538 1.457989 4.985444
0.000000 3.103853 1.750106
0.000000 5.000000 1.666667
0.000000 3.333333 0.000000
1.998178 5.005445 0.003030
0.000000 5.000000 0.000000
0.000000 5.000000 3.333333
0.000000 0.000000 3.333333
1.698184 2.460979 4.994862
3.038957 -0.002147 3.373830
2.001735 -0.013021 4.988043
0.000000 2.403264 3.370902
0.000000 1.666667 5.000000
0.000000 3.333333 5.000000
0.000000 0.000000 5.000000
27.922222 -0.079323 5.371397
29.932909 -0.086548 5.407284
36.062889 -0.036402 0.593707
39.870762 -0.141995 5.749030
8.014650 0.046968 -0.038245
1.999199 4.992237 5.005731
3.167375 1.465597 -0.008939
4.004604 0.009588 -0.015762
22.050697 -0.039532 0.181005
0.000000 5.000000 5.000000
6.011109 0.028907 -0.023653

CELLS 734 3670
4 0 1 2 3
4 0 4 2 5
4 0 3 2 6
4 4 6 0 2
4 4 6 7 0
4 8 9 10 11
4 12 13 14 15
4 16 17 14 18
4 19 20 18 21
4 20 22 21 23
4 24 25 26 23
4 25 27 26 23
4 26 28 29 30
4 28 29 31 32
4 33 34 32 31
4 31 33 35 32
4 31 33 36 35
4 33 37 36 35
4 38 39 40 31
4 41 42 43 38
4 44 42 45 38
4 44 42 38 43
4 46 38 42 41
4 46 47 40 48
4 49 50 51 52
4 53 54 51 55
4 56 54 55 57
4 56 58 59 57
4 60 59 61 62
4 63 61 64 65
4 66 67 68 69
4 67 70 71 72
4 73 74 75 76
4 74 77 75 76
4 77 78 79 80
4 79 81 75 80
4 77 78 80 82
4 77 83 76 84
4 83 85 76 84
4 85 86 74 84
4 74 86 87 84
4 88 89 86 90
4 91 89 88 90
4 86 88 90 92
4 90 86 92 74
4 86 89 74 90
4 93 94 95 74
4 70 74 72 93
4 70 73 71 72
4 74 96 73 72
4 66 97 93 72
4 96 97 72 93
4 96 98 97 93
4 85 96 74 99
4 96 98 93 99
4 98 89 100 93
4 101 102 100 103
4 104 105 101 106
4 107 58 57 60
4 58 107 57 56
4 53 108 109 55
4 56 110 109 54
4 53 111 109 108
4 112 53 109 52
4 111 112 113 53
4 112 111 113 114
4 115 116 114 117
4 40 28 115 117
4 45 117 118 28
4 119 28 25 44
4 120 44 121 122
4 123 121 124 125
4 125 123 126 124
4 127 128 21 124
4 16 129 128 21
4 16 18 14 130
4 16 17 18 19
4 131 17 132 18
4 16 19 18 21
4 133 16 19 134
4 135 134 133 136
4 135 137 136 138
4 137 134 139 140
4 141 142 143 144
4 145 146 147 7
4 142 148 147 146
4 7 146 147 149
4 10 7 9 146
4 145 150 7 151
4 152 151 150 153
4 16 128 154 124
4 124 21 121 133
4 25 28 30 44
4 28 38 45 40
4 45 47 40 42
4 155 45 156 47
4 157 156 47 155
4 155 45 40 117
4 45 42 158 159
4 44 42 43 158
4 119 45 158 159
4 120 44 158 119
4 25 127 21 121
4 25 27 160 30
4 127 25 160 30
4 25 127 121 30
4 44 25 121 30
4 28 30 44 29
4 119 28 44 45
4 119 28 118 25
4 28 24 26 161
4 26 32 29 28
4 28 31 29 38
4 46 38 41 39
4 46 38 39 40
4 28 117 40 45
4 118 28 117 161
4 162 24 118 161
4 118 119 163 164
4 136 119 164 163
4 25 133 21 163
4 128 16 21 124
4 165 166 153 154
4 166 167 168 169
4 167 168 169 170
4 171 168 172 166
4 124 173 126 154
4 123 121 133 124
4 120 125 122 121
4 122 158 44 43
4 47 46 40 42
4 52 50 174 48
4 175 50 174 54
4 176 175 177 178
4 179 60 180 181
4 64 69 63 65
4 68 72 67 66
4 70 73 182 71
4 74 79 183 75
4 184 78 185 79
4 79 184 186 187
4 186 184 188 187
4 184 189 190 191
4 184 78 79 186
4 78 189 184 191
4 189 184 190 188
4 184 78 191 192
4 184 78 192 185
4 192 78 80 185
4 193 80 194 185
4 195 81 196 194
4 81 79 196 194
4 197 187 196 198
4 187 79 185 196
4 79 184 187 185
4 197 199 187 198
4 199 197 187 200
4 199 200 187 186
4 78 201 79 186
4 189 201 87 78
4 202 201 79 74
4 201 74 92 87
4 201 202 92 74
4 201 202 79 186
4 202 203 74 79
4 202 198 203 79
4 204 202 199 203
4 202 203 205 74
4 202 204 205 203
4 182 203 74 205
4 74 203 183 79
4 79 203 183 198
4 79 81 198 183
4 81 79 198 196
4 187 79 196 198
4 202 198 79 186
4 202 204 94 205
4 94 95 205 206
4 207 208 209 210
4 208 207 211 210
4 104 103 211 65
4 104 60 212 213
4 214 215 216 217
4 218 219 220 221
4 222 174 220 221
4 46 39 222 174
4 52 46 40 48
4 40 49 52 48
4 53 49 52 113
4 40 49 155 113
4 155 45 47 40
4 157 47 223 155
4 49 223 224 48
4 52 50 51 54
4 175 54 57 178
4 218 175 54 57
4 225 219 54 57
4 218 175 57 177
4 57 217 219 218
4 219 225 226 57
4 225 227 226 57
4 59 110 57 227
4 59 60 61 228
4 61 60 213 228
4 64 61 213 228
4 63 61 213 64
4 61 104 211 65
4 180 60 104 62
4 58 229 62 180
4 58 60 180 62
4 60 61 104 62
4 60 226 230 212
4 226 60 213 212
4 60 104 212 230
4 179 60 230 104
4 104 211 231 62
4 180 229 62 232
4 180 232 62 231
4 179 60 104 180
4 233 181 105 179
4 181 105 179 230
4 105 214 106 230
4 105 214 230 177
4 215 214 218 217
4 215 217 218 219
4 218 215 219 221
4 218 175 174 54
4 39 52 220 174
4 39 46 52 174
4 115 52 112 35
4 28 115 117 161
4 162 118 116 161
4 24 162 118 163
4 20 19 234 163
4 25 133 163 119
4 120 119 158 235
4 236 119 235 159
4 235 119 158 159
4 119 235 133 136
4 138 235 236 164
4 45 47 42 159
4 46 38 40 42
4 49 50 52 48
4 237 175 176 178
4 181 233 177 176
4 180 179 231 104
4 207 103 65 211
4 207 103 68 65
4 65 66 103 68
4 103 66 97 93
4 66 103 97 63
4 213 104 63 238
4 238 97 103 63
4 104 102 103 238
4 104 106 212 230
4 214 212 106 230
4 214 212 216 106
4 214 212 217 216
4 214 212 230 217
4 226 217 230 212
4 226 60 230 57
4 181 60 57 230
4 179 105 104 230
4 179 105 101 104
4 104 239 103 101
4 239 101 240 100
4 91 241 240 100
4 241 239 240 100
4 239 241 103 100
4 103 210 93 241
4 103 207 93 210
4 210 103 231 239
4 103 239 104 231
4 103 104 63 65
4 65 66 63 103
4 65 66 68 69
4 68 72 66 93
4 96 98 242 97
4 85 96 99 243
4 85 86 99 74
4 86 89 99 74
4 88 86 244 92
4 74 86 92 87
4 201 244 87 92
4 244 86 87 92
4 90 74 92 94
4 94 95 206 245
4 95 209 206 245
4 245 207 95 209
4 208 232 231 211
4 180 104 231 62
4 181 60 107 57
4 54 175 51 178
4 50 52 174 54
4 246 36 52 247
4 246 36 37 35
4 52 31 36 35
4 31 39 52 36
4 39 46 222 41
4 39 222 174 220
4 174 218 220 221
4 218 219 54 220
4 225 219 220 54
4 56 110 54 57
4 110 56 59 57
4 60 59 226 228
4 60 226 213 228
4 57 217 230 226
4 214 217 230 218
4 218 57 230 177
4 181 105 230 177
4 179 60 181 230
4 58 107 180 60
4 229 107 58 248
4 229 107 180 58
4 60 58 59 62
4 58 107 56 248
4 108 56 109 55
4 108 56 55 248
4 107 56 55 57
4 107 181 57 178
4 57 181 177 178
4 181 176 177 178
4 233 181 177 105
4 249 239 101 240
4 91 89 241 100
4 89 91 241 90
4 210 245 93 241
4 245 241 90 93
4 93 94 90 245
4 74 202 92 94
4 205 204 94 206
4 202 198 199 203
4 202 198 186 199
4 199 197 200 250
4 199 186 187 198
4 200 186 188 187
4 184 189 186 188
4 201 189 87 244
4 189 201 78 186
4 201 78 79 87
4 189 78 184 186
4 186 79 187 198
4 74 201 79 87
4 74 79 84 87
4 79 78 84 87
4 77 78 84 79
4 74 77 84 79
4 74 85 84 76
4 83 243 76 85
4 85 96 243 76
4 73 96 74 76
4 96 93 74 99
4 89 93 99 74
4 93 94 74 90
4 93 94 245 95
4 207 95 68 93
4 95 70 68 93
4 95 70 74 205
4 74 70 182 205
4 94 95 74 205
4 241 89 90 93
4 104 179 231 239
4 181 60 180 107
4 107 57 55 178
4 57 54 55 178
4 53 49 51 52
4 40 49 113 52
4 155 47 223 48
4 45 47 159 156
4 119 156 45 159
4 120 44 119 121
4 16 173 124 154
4 166 167 169 145
4 145 7 147 251
4 9 7 252 149
4 253 254 252 255
4 256 253 255 254
4 6 9 252 255
4 253 257 149 252
4 7 258 259 260
4 260 261 251 170
4 169 260 251 170
4 169 251 167 170
4 166 167 145 171
4 16 22 18 130
4 25 24 20 23
4 24 25 118 28
4 119 156 118 45
4 119 28 45 118
4 119 45 44 158
4 44 38 28 29
4 25 28 26 30
4 25 24 26 28
4 24 20 234 163
4 162 24 234 163
4 163 119 118 25
4 235 135 133 136
4 135 134 140 133
4 145 141 153 144
4 145 260 169 151
4 0 258 4 5
4 259 258 262 263
4 264 259 262 263
4 258 7 262 0
4 260 258 259 261
4 258 261 263 259
4 261 258 263 265
4 261 260 251 259
4 167 251 169 145
4 145 260 251 169
4 166 167 171 168
4 16 171 153 140
4 137 135 136 134
4 138 135 235 136
4 235 138 136 164
4 236 119 156 164
4 157 156 159 47
4 155 47 48 40
4 40 49 48 155
4 46 52 174 48
4 247 225 220 54
4 110 225 57 227
4 60 59 57 226
4 104 61 211 62
4 232 211 62 231
4 103 104 211 231
4 239 210 103 241
4 241 93 103 100
4 68 72 93 70
4 103 207 68 93
4 207 103 211 210
4 210 208 231 211
4 103 210 231 211
4 245 207 210 93
4 245 207 209 210
4 245 207 93 95
4 70 95 74 93
4 70 73 74 182
4 182 203 183 74
4 202 74 205 94
4 93 89 90 74
4 89 241 100 93
4 93 98 103 100
4 101 104 102 103
4 104 101 102 106
4 106 238 104 212
4 266 216 212 106
4 106 238 212 266
4 106 238 102 104
4 267 266 238 102
4 97 102 267 238
4 106 238 266 102
4 97 102 238 103
4 97 102 103 98
4 97 102 98 267
4 97 98 242 267
4 96 98 99 242
4 89 98 99 93
4 239 101 100 103
4 104 179 239 101
4 179 249 239 101
4 105 179 101 249
4 233 105 249 179
4 177 181 57 230
4 175 57 177 178
4 175 237 51 178
4 55 54 51 178
4 112 111 109 53
4 112 53 52 113
4 117 115 113 114
4 116 118 117 161
4 115 116 117 161
4 28 115 161 32
4 29 32 26 34
4 26 30 29 27
4 34 26 29 27
4 29 34 31 32
4 31 115 32 35
4 31 115 28 32
4 246 112 52 35
4 246 247 52 54
4 247 110 225 54
4 59 227 57 226
4 213 104 238 212
4 104 103 63 238
4 97 98 103 93
4 70 73 72 74
4 71 182 268 73
4 182 75 268 73
4 182 75 183 268
4 183 81 268 75
4 182 75 74 183
4 79 81 183 75
4 79 81 80 194
4 78 192 80 82
4 192 193 80 82
4 269 193 192 82
4 193 192 80 185
4 80 79 194 185
4 77 74 75 79
4 85 96 76 74
4 96 243 242 99
4 98 102 103 100
4 104 105 106 230
4 214 218 230 177
4 50 175 51 54
4 49 155 223 48
4 157 156 236 159
4 236 119 159 156
4 235 119 164 136
4 236 119 164 235
4 133 235 120 123
4 120 235 133 119
4 135 123 235 133
4 124 173 123 126
4 173 172 126 154
4 166 171 154 172
4 172 171 154 173
4 171 16 154 173
4 171 166 154 153
4 16 171 154 153
4 124 173 16 133
4 124 173 133 123
4 25 133 119 121
4 19 16 133 21
4 163 19 133 21
4 134 19 133 136
4 133 119 136 163
4 133 19 163 136
4 132 20 18 19
4 20 132 234 19
4 20 19 163 21
4 22 20 21 18
4 16 22 21 18
4 128 129 127 21
4 160 129 21 127
4 160 21 25 127
4 25 20 21 23
4 25 27 23 160
4 25 27 30 26
4 23 22 21 160
4 16 129 21 22
4 128 130 165 270
4 128 130 270 129
4 128 130 16 165
4 16 165 153 154
4 17 16 14 153
4 131 17 18 14
4 17 141 153 15
4 12 10 15 153
4 15 17 14 153
4 153 16 14 130
4 16 129 22 130
4 128 130 129 16
4 16 128 165 154
4 151 166 153 165
4 260 145 7 151
4 9 6 252 7
4 7 262 252 149
4 260 259 7 251
4 7 259 147 251
4 264 259 271 149
4 259 7 147 149
4 146 148 147 149
4 271 259 147 149
4 148 271 147 149
4 146 142 143 141
4 144 141 140 139
4 141 134 140 139
4 143 141 144 139
4 142 145 141 146
4 145 142 141 144
4 148 142 143 146
4 145 7 10 146
4 145 150 151 153
4 151 272 150 7
4 151 272 273 150
4 151 272 4 273
4 4 272 2 273
4 151 272 7 4
4 4 260 7 151
4 166 145 151 153
4 166 145 169 151
4 171 166 153 145
4 133 16 140 173
4 124 16 21 133
4 25 21 160 23
4 21 129 160 22
4 121 21 124 127
4 121 120 133 119
4 123 121 125 120
4 123 121 120 133
4 25 133 121 21
4 25 20 163 21
4 118 24 28 161
4 26 28 161 32
4 40 115 28 31
4 115 52 113 112
4 246 112 109 52
4 246 52 109 54
4 56 54 109 55
4 56 107 55 248
4 58 60 59 57
4 63 61 65 104
4 68 72 70 67
4 182 75 73 74
4 77 79 75 80
4 196 79 185 194
4 79 78 185 80
4 77 78 82 84
4 83 77 82 84
4 77 74 84 76
4 96 74 93 72
4 103 66 93 68
4 65 66 69 63
4 63 61 104 213
4 61 60 104 213
4 59 227 226 228
4 274 110 227 225
4 246 36 247 37
4 246 36 35 52
4 52 115 40 31
4 28 31 38 40
4 44 42 158 45
4 120 44 122 158
4 135 133 140 173
4 171 16 173 140
4 171 144 153 140
4 141 144 140 153
4 10 141 15 153
4 10 12 15 13
4 10 8 12 13
4 8 10 12 11
4 8 9 11 255
4 9 253 149 252
4 257 262 149 252
4 262 259 149 7
4 258 7 4 260
4 259 258 7 262
4 262 0 7 252
4 0 6 7 252
4 254 6 252 255
4 0 3 6 252
4 6 3 254 252
4 272 6 11 7
4 4 6 272 7
4 4 6 2 272
4 9 6 11 255
4 9 253 252 255
4 262 264 257 149
4 257 264 275 271
4 259 264 262 149
4 257 264 271 149
4 9 146 7 149
4 10 7 11 9
4 7 12 10 11
4 145 150 153 12
4 12 145 10 153
4 145 146 10 141
4 145 142 147 146
4 171 145 153 144
4 171 142 145 144
4 142 171 145 167
4 142 145 147 167
4 167 145 147 251
4 145 260 7 251
4 145 150 12 7
4 12 145 7 10
4 12 152 153 14
4 152 153 14 130
4 152 151 153 165
4 165 152 276 270
4 152 151 165 276
4 165 152 270 130
4 152 151 276 150
4 276 150 151 273
4 272 7 11 150
4 7 12 11 150
4 153 150 152 12
4 165 16 153 130
4 165 152 130 153
4 15 12 153 14
4 13 131 14 15
4 17 131 15 14
4 17 132 18 19
4 25 24 163 20
4 25 24 118 163
4 119 156 164 118
4 118 117 45 156
4 155 45 117 156
4 113 40 117 155
4 50 49 224 48
4 49 50 224 51
4 50 237 224 51
4 237 50 175 51
4 52 54 220 174
4 52 247 220 54
4 39 247 220 52
4 39 247 52 36
4 115 52 35 31
4 40 115 52 113
4 40 115 113 117
4 115 112 113 114
4 53 52 51 54
4 54 53 109 55
4 52 53 109 54
4 110 246 109 54
4 247 110 54 246
4 247 110 274 225
4 246 274 37 247
4 247 110 246 274
4 110 225 54 57
4 57 217 226 219
4 57 217 218 230
4 219 218 54 57
4 218 54 174 220
4 46 39 52 40
4 39 31 52 40
4 38 42 45 40
4 28 38 44 45
4 121 25 44 119
4 123 135 173 133
4 134 153 140 16
4 134 16 140 133
4 137 135 134 140
4 134 153 141 140
4 134 153 16 17
4 16 17 19 134
4 134 153 17 141
4 153 145 10 141
4 6 9 11 7
4 258 7 0 4
4 1 0 2 5

CELL_TYPES 734
10
10
10
10
10
10
10
10
10
10
10
10
10
10
10
10
10
10
10
10
10
10
10
10
10
10
10
10
10
10
10
10
10
10
10
10
10
10
10
10
10
10
10
10
10
10
10
10
10
10
10
10
10
10
10
10
10
10
10
10
10
10
10
10
10
10
10
10
10
10
10
10
10
10
10
10
10
10
10
10
10
10
10
10
10
10
10
10
10
10
10
10
10
10
10
10
10
10
10
10
10
10
10
10
10
10
10
10
10
10
10
10
10
10
10
10
10
10
10
10
10
10
10
10
10
10
10
10
10
10
10
10
10
10
10
10
10
10
10
10
10
10
10
10
10
10
10
10
10
10
10
10
10
10
10
10
10
10
10
10
10
10
10
10
10
10
10
10
10
10
10
10
10
10
10
10
10
10
10
10
10
10
10
10
10
10
10
10
10
10
10
10
10
10
10
10
10
10
10
10
10
10
10
10
10
10
10
10
10
10
10
10
10
10
10
10
10
10
10
10
10
10
10
10
10
10
10
10
10
10
10
10
10
10
10
10
10
10
10
10
10
10
10
10
10
10
10
10
10
10
10
10
10
10
10
10
10
10
10
10
10
10
10
10
10
10
10
10
10
10
10
10
10
10
10
10
10
10
10
10
10
10
10
10
10
10
10
10
10
10
10
10
10
10
10
10
10
10
10
10
10
10
10
10
10
10
10
10
10
10
10
10
10
10
10
10
10
10
10
10
10
10
10
10
10
10
10
10
10
10
10
10
10
10
10
10
10
10
10
10
10
10
10
10
10
10
10
10
10
10
10
10
10
10
10
10
10
10
10
10
10
10
10
10
10
10
10
10
10
10
10
10
10
10
10
10
10
10
10
10
10
10
10
10
10
10
10
10
10
10
10
10
10
10
10
10
10
10
10
10
10
10
10
10
10
10
10
10
10
10
10
10
10
10
10
10
10
10
10
10
10
10
10
10
10
10
10
10
10
10
10
10
10
10
10
10
10
10
10
10
10
10
10
10
10
10
10
10
10
10
10
10
10
10
10
10
10
10
10
10
10
10
10
10
10
10
10
10
10
10
10
10
10
10
10
10
10
10
10
10
10
10
10
10
10
10
10
10
10
10
10
10
10
10
10
10
10
10
10
10
10
10
10
10
10
10
10
10
10
10
10
10
10
10
10
10
10
10
10
10
10
10
10
10
10
10
10
10
10
10
10
10
10
10
10
10
10
10
10
10
10
10
10
10
10
10
10
10
10
10
10
10
10
10
10
10
10
10
10
10
10
10
10
10
10
10
10
10
10
10
10
10
10
10
10
10
10
10
10
10
10
10
10
10
10
10
10
10
10
10
10
10
10
10
10
10
10
10
10
10
10
10
10
10
10
10
10
10
10
10
10
10
10
10
10
10
10
10
10
10
10
10
10
10
10
10
10
10
10
10
10
10
10
10
10
10
10
10
10
10
10
10
10
10
10
10
10
10
10
10
10
10
10
10
10
10
10
10
10
10
10
10
10
10
10
10
10
10
10
10
10
10
10
10
10
10
10
10
10
10
10
10
10
10
10
10
10
10
10
10
10
10
10
10
10
10
10
10
10
10
10
10
10
10
10
10
10
10
10
10
10
10
10
10
10
10
10
10
10
10
10
10
10
10
10
10
10
10
10
10
10
10
10
10

CELL_DATA 734
SCALARS potentialEnergy FLOAT 1
LOOKUP_TABLE default
51.615940
40.777454
80.382721
91.823708
67.658878
13.451399
62.403408
102.483017
258.588791
74.003242
74.547165
124.692635
44.129425
71.089584
31.490107
41.271046
28.421124
162.108368
123.660072
54.879456
69.676891
38.298584
62.626270
58.402725
120.965561
42.087452
232.400269
86.198181
69.712875
133.305740
107.250450
42.022938
15.550852
363.106171
144.540771
65.279999
76.788910
60.703182
66.820118
160.507812
96.402237
78.159302
139.513916
93.330742
73.649300
192.951279
86.489861
36.296846
104.224304
49.659065
74.490311
84.502922
172.062286
55.208885
179.093414
44.877838
50.884586
63.083618
94.957359
68.689056
72.316383
84.552200
111.871918
180.393631
53.227730
78.451210
134.677559
98.362961
184.559555
106.118820
57.999859
177.186783
181.737213
45.860718
35.321112
76.389519
84.719635
80.571007
164.277618
107.951744
88.278709
81.019005
24.594369
52.910446
43.999752
87.250725
59.873013
25.740743
94.352501
198.068802
153.599503
223.517059
69.434677
34.165222
56.105915
202.036758
100.928154
128.815338
127.142921
76.133644
51.721516
144.712357
258.331360
39.581686
140.819382
73.605537
110.923233
88.177391
72.333832
112.624519
74.795921
133.026711
126.905457
44.322571
28.690969
35.186720
101.504044
72.046192
59.778706
134.574364
153.718506
82.892517
294.503693
84.890579
108.984657
70.027447
77.074539
130.838844
180.009933
40.498941
61.244102
38.693256
73.635807
123.156090
83.886597
109.143539
44.499435
43.146168
85.153252
165.120956
81.620781
43.930935
63.583740
112.982864
100.654236
188.033920
138.091766
152.939697
141.183838
90.659424
46.047447
196.614624
107.319771
105.703972
150.994141
151.454376
36.224226
48.995110
272.391418
185.564926
96.516579
31.472157
33.242907
291.601440
105.934578
158.158936
188.952560
154.520432
97.957535
98.984825
89.889259
128.813072
122.306442
141.489182
128.937431
281.401062
29.898211
52.511990
172.746460
60.560387
48.462399
101.098862
50.587139
34.386610
83.984222
41.593740
68.237675
136.933090
203.180786
90.651527
79.366867
49.562424
44.910442
158.127090
139.638382
84.631691
55.375431
147.603943
115.539627
34.983992
91.906776
93.920242
43.828251
92.852386
148.986053
72.364384
31.596199
35.489584
118.558258
153.584946
56.885899
37.480129
73.252579
48.360348
25.293868
30.198605
79.462837
46.733719
25.713802
98.363525
36.117844
51.082142
28.613781
76.869850
29.421579
51.557446
83.739883
42.798313
150.585419
97.180031
114.456085
83.993492
62.436275
123.961060
196.697906
74.027580
120.216774
123.040863
106.045197
174.534012
128.058128
52.178253
217.185944
109.320282
110.763687
25.156939
114.574585
113.069458
250.350113
184.269150
161.569641
62.899105
188.010651
132.758667
46.386440
48.133385
35.551081
33.219673
59.708439
43.939625
48.841957
52.362507
21.133305
26.272371
114.443039
52.259560
70.932041
67.132130
171.235855
221.974747
108.867752
181.279999
171.237473
75.875992
213.022751
113.535812
53.906467
104.595367
61.973717
73.751583
84.043678
79.982086
189.048340
186.761093
79.972458
47.556221
49.438564
115.301414
87.564583
88.271080
32.240042
201.148651
63.026146
77.539917
79.113312
47.885593
109.796135
57.509060
36.060644
14.725459
34.719856
73.845196
57.208939
351.512970
135.606682
124.378304
22.694432
39.908279
32.279839
50.403374
60.156704
36.873627
129.478462
145.076706
193.101913
54.205765
24.056628
111.642265
231.427963
106.937508
172.136688
234.532852
124.764091
66.294300
79.616249
69.288979
104.729568
121.042603
150.128662
84.112076
56.696121
59.150101
168.410721
256.200500
49.528683
221.356491
130.235374
200.232193
161.206741
246.733749
339.877136
85.094376
203.004776
81.207260
141.253845
207.611801
108.618767
151.743698
163.713120
132.430473
63.216732
74.808701
108.506416
31.049639
131.473495
60.166065
108.024155
60.908669
61.251335
107.394768
130.102425
230.494568
76.098999
106.426537
122.741241
90.659729
71.692551
103.048904
51.456219
134.303429
120.632462
119.643188
118.711288
115.379868
37.900747
12.192534
42.563774
37.416327
43.351555
26.617750
103.091133
53.279140
105.458588
69.924011
189.697021
62.503765
193.866867
139.032516
50.317459
68.760021
110.974037
113.241531
72.141418
94.520386
129.323029
68.273781
102.058975
127.024391
70.097832
81.480728
43.113056
30.413027
40.651472
31.107641
69.607151
139.506439
137.078407
73.692200
36.812618
57.712708
26.133186
127.507347
173.352448
64.893101
54.314632
60.011547
82.299995
129.288078
116.156105
102.945206
141.456528
43.890385
75.026985
51.401649
56.885136
17.416999
61.217621
105.762802
99.355240
53.240776
79.413742
119.164864
67.575974
142.726425
213.893723
149.533798
140.823532
63.387833
77.299561
49.655098
88.478966
178.454514
112.929344
49.741703
42.589252
88.856598
46.702869
108.348175
132.503296
112.371910
156.004150
42.794674
110.498207
155.956711
100.283501
69.088303
141.931763
78.737511
77.979561
102.549812
63.710922
55.687965
30.178490
28.752516
68.159786
210.407166
36.830849
147.438950
109.671440
91.243088
211.091461
33.482624
117.851349
76.304977
119.466171
28.556156
213.990891
116.760490
109.734726
123.721230
107.199707
72.546253
58.455875
111.802292
65.907295
73.621235
129.623436
23.441898
92.509048
31.433983
43.725819
81.477684
48.422337
80.735291
128.908737
76.178841
59.782631
68.050735
91.587936
44.816868
41.903259
87.140564
111.489784
33.913994
26.002455
29.707432
115.661896
107.485229
103.090324
82.390198
86.957069
116.094406
121.971375
91.153297
81.742920
128.909271
128.500038
56.603031
126.001366
238.700958
283.673492
223.952469
145.970245
160.129501
149.857773
80.860016
163.545670
109.264030
94.282066
75.092941
117.989388
218.156601
149.556824
67.299446
45.059528
121.895790
51.984447
108.573830
167.111786
48.570152
17.427058
66.302784
31.501751
92.079521
46.237713
77.236481
127.918678
90.960609
60.865852
90.448288
58.023796
121.247993
147.851547
66.276726
60.288921
108.724930
316.388550
135.108925
49.499924
121.454590
71.193981
40.353319
50.773521
54.903206
40.612419
30.562508
40.167957
76.608009
103.918633
138.962814
114.519646
176.602158
105.238998
41.680855
46.828812
135.130592
51.424641
21.928703
28.412182
55.980030
78.136978
37.790070
166.684372
46.552940
134.922394
69.968212
100.157204
52.505589
53.749863
88.152847
187.610519
198.195633
366.774567
89.003204
199.843460
126.667770
119.476318
151.132614
74.208961
112.802551
123.851906
230.108414
56.995453
62.682129
52.431774
114.337250
45.021832
33.866877
67.048073
156.470352
74.722145
196.154053
137.564568
61.578602
136.396812
138.920868
67.152596
101.054977
100.904366
101.620605
19.477626
104.764931
117.281219
53.346207
159.310593
82.677094
60.590603
211.093597
206.993988
236.076691
76.111153
32.950212
29.326883
59.832993
16.601048
91.405869
31.992958
72.258244
50.156242
200.770279
53.295837
118.114418
52.438763
80.173775
77.640961
26.596804
46.009621
36.726122
55.968269
43.946869
32.428434
26.367895
59.051968
34.040609
44.360481
17.618561
106.361191
137.874641
60.588753
69.216881
141.179398
107.053772
125.057243
117.621216
69.681965
51.319618
29.019228
85.208084
50.059093
146.147293
95.423370
214.623337
158.196472
113.535011
120.825447
121.341080
127.430450
26.533888
199.565384
196.635498
78.121346
101.274773
150.764954
95.211357
67.347366
83.521622
447.512024
35.096819
94.795975
69.160221
97.032524
149.697250
46.916191
55.524963
98.190773
41.656828
55.006065
22.247872
52.074322
12.406490
177.314209
79.875175
109.539276
97.908020
56.616486
106.463646
36.261843
40.849243
63.599442
52.909786
19.852865
59.841187
116.462914
40.013233
80.148399
68.672245
107.527519
144.839722
17.617968
48.105350
91.689255
129.417442
92.964630
242.873749
94.765106
87.342041
233.204605
79.532974
76.663940
76.157593
91.852379
42.395424
50.405907
42.694435

