# vtk DataFile Version 3.1
Tetrahedral Mesh Visualization
ASCII
DATASET UNSTRUCTURED_GRID

POINTS 277 FLOAT
0.000000 1.378113 1.754166
0.000000 0.000000 0.000000
2.002264 0.009505 0.012146
0.000000 1.666667 0.000000
2.421165 0.010034 1.748309
0.000000 0.000000 1.666667
1.699248 2.470103 0.013400
3.000848 2.464100 2.346395
4.021433 5.001357 0.033769
3.084055 5.003045 1.665478
5.228819 5.005229 1.653544
3.509022 3.186155 0.033353
5.433086 3.307006 0.048720
6.036450 4.997716 0.059771
7.395440 3.317610 0.084166
6.989758 4.988246 1.399642
9.260595 2.166170 2.155421
8.710123 4.985930 1.722191
9.381635 3.318697 0.128796
10.675942 4.987803 1.808873
11.371953 3.317244 0.160793
11.125087 1.852242 1.720881
10.714012 1.654479 0.149443
12.700042 1.642150 0.180533
13.366720 3.303219 0.178634
12.985519 1.854077 1.678916
14.699759 1.636227 0.206327
14.030716 -0.023640 0.203939
15.480149 2.122054 1.899253
15.345946 -0.019574 1.881039
13.342227 -0.020900 1.864845
17.306440 -0.019188 1.869302
16.702784 1.630539 0.232807
18.037134 -0.041172 0.276597
16.032061 -0.028388 0.229545
18.710205 1.623360 0.270985
19.027838 -0.023982 1.618040
20.039454 -0.048390 0.318864
16.726810 -0.008319 3.550024
18.995665 -0.002396 3.406120
17.702642 2.676390 3.187224
17.963264 0.008805 5.269542
16.642988 1.663094 5.237023
15.963425 -0.003509 5.233324
14.672065 -0.015746 3.540426
15.765995 2.870240 3.563611
18.691021 1.714238 5.272540
17.274990 3.343033 5.228886
19.242262 3.408801 5.261083
19.311674 4.998007 3.576211
20.951756 3.714483 5.286205
21.312225 5.004074 3.604961
19.634756 2.479429 2.633456
20.671625 4.973047 1.925875
21.917471 2.502152 2.790775
22.666208 4.986219 1.955759
23.323196 3.349932 0.319557
23.975292 2.452434 2.640318
25.028334 3.647640 0.328878
25.033390 1.853342 0.360983
25.990555 2.502476 2.090160
27.293524 1.676688 0.389126
26.737690 3.367332 0.348964
29.279837 0.015038 2.047354
28.029833 -0.021374 0.427839
29.342169 1.664158 0.409517
30.998999 0.024298 1.751580
32.033779 0.023977 0.432553
31.343250 1.675145 0.416724
30.025167 0.001997 0.430025
33.318638 1.676937 0.430822
34.037750 0.025556 0.450836
32.693581 0.048308 2.048913
34.602009 0.048872 2.148119
34.990780 2.468068 2.993525
36.501060 0.040448 2.332016
35.110497 0.065318 3.867323
36.791470 0.064112 4.063927
38.246078 2.579340 5.540668
37.698090 2.194215 2.709317
38.283279 0.030970 3.092049
38.028233 -0.005780 0.548772
37.922558 0.051916 5.543534
35.936775 0.079433 5.501041
36.505348 1.830699 5.502665
34.886734 1.433445 5.471465
34.800800 3.236581 5.441911
36.713604 3.556552 5.486524
33.950882 5.105299 5.392695
32.646252 3.395792 5.401387
33.254101 5.068228 3.733443
31.950630 5.093100 5.364425
35.146496 5.062871 3.812102
32.200630 2.652514 2.833493
34.609394 5.045958 2.105964
32.678989 3.342963 0.401934
33.194397 0.072507 3.758834
30.978340 0.050907 3.540195
31.280319 1.740569 5.412041
33.206959 1.701033 5.431308
30.624529 3.410517 5.385363
28.620363 3.400925 5.363025
29.294878 1.737202 5.406425
30.015236 2.535405 2.874981
27.954834 2.519219 2.852247
26.619108 3.396440 5.344969
27.292379 1.732387 5.380691
24.663260 4.996090 1.971345
22.029701 4.953223 0.279745
21.372400 3.287175 0.293891
22.775126 1.652597 0.339489
20.037628 4.948014 0.249299
19.374537 3.283842 0.261188
18.673170 4.976817 1.898077
18.042488 4.957532 0.221080
17.372669 3.293926 0.226229
16.035637 4.965293 0.198603
16.672850 4.972958 1.867266
14.671749 4.975821 1.846391
13.687611 2.944346 3.456383
12.961948 1.315989 5.192431
12.659883 -0.010085 3.526715
13.961069 -0.010905 5.204091
11.239224 1.611314 5.165601
10.648355 -0.006581 3.491688
11.959181 -0.000830 5.185771
9.957272 -0.001471 5.143889
11.340601 -0.010901 1.841328
9.323799 -0.010094 1.794343
10.036361 -0.004074 0.138508
8.720390 1.654262 0.114427
8.040949 4.984426 0.095299
10.041905 4.987618 0.139896
11.217109 2.635137 3.448993
9.251639 4.992173 3.423976
10.714987 3.307326 5.150639
11.309552 4.992997 3.484836
9.975406 4.991208 5.138023
11.983573 4.995221 5.163304
7.975459 4.999931 5.093822
8.713676 3.386334 5.109540
6.964228 4.992997 3.187802
5.342129 3.380592 5.049481
5.987446 5.011037 5.058508
7.010015 3.680531 5.077749
5.135747 2.373518 3.179791
4.624801 5.010494 3.323501
3.481396 3.213769 5.026864
3.993569 5.025165 5.025252
2.370338 5.009911 3.291688
4.860851 1.610892 0.036338
4.904878 0.003114 1.905270
6.752046 1.648270 0.073942
7.015210 2.549011 2.269976
8.639946 -0.009155 3.442768
17.313965 4.991597 3.544079
15.318528 4.987028 3.520011
15.965158 5.004929 5.196554
14.676323 1.601855 5.206986
15.233690 3.298106 5.201080
12.030412 -0.018637 0.179233
15.369598 3.297871 0.200756
14.034474 4.966134 0.174023
12.674089 4.983707 1.835278
13.322528 4.990578 3.504572
7.249408 -0.011702 1.766553
6.653814 -0.013445 3.436920
4.890394 1.655844 5.043143
5.966766 -0.006484 5.051756
4.906165 0.001424 3.695789
3.983907 0.008801 5.026795
7.013246 1.882397 5.070433
7.956936 -0.004357 5.086024
9.238867 1.686968 5.121441
20.956007 1.926153 5.314090
22.662434 3.435002 5.317054
23.956347 5.046946 5.301567
24.622646 3.395749 5.329613
23.310394 5.016963 3.631503
27.305071 5.038361 3.658149
26.658827 5.004086 1.985059
25.310120 5.028216 3.643344
35.201794 1.634026 0.462797
36.880123 1.462450 0.507116
39.983276 3.267048 4.203468
39.993347 1.636966 3.190706
38.324585 5.024056 3.045617
40.022884 3.247916 2.478946
40.006073 5.012357 3.898862
37.967350 5.063879 5.504372
39.963634 5.035404 5.568878
39.952053 3.369507 5.582181
39.938034 1.699165 5.594051
39.960583 0.016647 3.943923
39.994553 -0.003595 2.275966
40.030731 -0.031326 0.617229
40.047256 1.637665 0.596661
40.061825 3.309229 0.586616
38.362038 2.459514 0.541074
38.075680 4.997445 0.514172
40.044857 4.994180 2.239747
36.834686 5.052496 4.016540
36.539299 5.033646 2.284344
36.568768 3.186175 0.483777
36.069572 5.010769 0.456227
34.648014 3.334884 0.443706
34.045006 5.019418 0.402767
30.683187 3.336512 0.387129
30.022532 4.998785 0.353240
32.027817 5.003677 0.376123
30.651371 5.028717 2.025346
28.695763 3.333891 0.373882
26.710245 0.030564 3.796110
27.274145 0.002918 2.109881
25.280420 1.730246 5.365814
23.967009 0.051448 5.387495
25.968889 0.060191 5.403745
24.982254 0.032666 4.075028
23.224752 1.749664 5.350111
23.266548 0.021995 3.760388
21.256273 0.010676 3.657974
21.970882 0.049356 5.360919
19.963827 0.032889 5.318716
17.955404 5.012834 5.223457
19.947882 5.024847 5.255608
22.750425 -0.016882 2.057627
25.006382 -0.003146 2.284148
24.038607 -0.042719 0.383771
26.035152 -0.033477 0.411917
26.020754 4.974416 0.316436
25.686285 2.263613 3.847015
28.656158 5.018849 2.003646
28.021021 4.986436 0.332791
25.958029 5.058724 5.317078
12.037024 4.982508 0.165031
12.975693 3.107813 5.179269
13.977724 5.001057 5.178057
21.951206 5.038888 5.279987
28.720894 0.046130 3.737609
29.299858 5.045906 3.674954
29.949518 5.079011 5.346799
31.287563 5.059119 3.696794
31.978914 0.087956 5.437397
33.961800 0.091642 5.462497
35.959232 5.082420 5.436930
32.643295 5.032342 2.047069
20.724939 1.616810 0.312576
20.744886 -0.026678 1.952669
24.024847 4.962553 0.298342
27.955719 5.065233 5.332547
40.090527 4.964966 0.577003
3.174410 1.483260 5.022658
0.000000 3.103853 1.750106
0.000000 5.000000 1.666667
0.000000 3.333333 0.000000
2.003590 4.997777 0.017141
0.000000 5.000000 0.000000
0.000000 5.000000 3.333333
0.000000 0.000000 3.333333
1.695182 2.479001 5.011623
3.036787 0.007626 3.407398
1.998809 0.007198 5.012452
0.000000 2.403264 3.370902
0.000000 1.666667 5.000000
0.000000 3.333333 5.000000
0.000000 0.000000 5.000000
27.974047 0.069827 5.419376
29.980259 0.074942 5.424588
36.031414 0.017362 0.498744
39.911976 0.029226 5.613659
8.031084 -0.000601 0.089978
1.996913 5.007811 5.012779
3.171885 1.470739 0.023517
4.003839 0.018858 0.020881
22.040703 -0.051077 0.359104
0.000000 5.000000 5.000000
6.020414 0.002690 0.053234

CELLS 734 3670
4 0 1 2 3
4 0 4 2 5
4 0 3 2 6
4 4 6 0 2
4 4 6 7 0
4 8 9 10 11
4 12 13 14 15
4 16 17 14 18
4 19 20 18 21
4 20 22 21 23
4 24 25 26 23
4 25 27 26 23
4 26 28 29 30
4 28 29 31 32
4 33 34 32 31
4 31 33 35 32
4 31 33 36 35
4 33 37 36 35
4 38 39 40 31
4 41 42 43 38
4 44 42 45 38
4 44 42 38 43
4 46 38 42 41
4 46 47 40 48
4 49 50 51 52
4 53 54 51 55
4 56 54 55 57
4 56 58 59 57
4 60 59 61 62
4 63 61 64 65
4 66 67 68 69
4 67 70 71 72
4 73 74 75 76
4 74 77 75 76
4 77 78 79 80
4 79 81 75 80
4 77 78 80 82
4 77 83 76 84
4 83 85 76 84
4 85 86 74 84
4 74 86 87 84
4 88 89 86 90
4 91 89 88 90
4 86 88 90 92
4 90 86 92 74
4 86 89 74 90
4 93 94 95 74
4 70 74 72 93
4 70 73 71 72
4 74 96 73 72
4 66 97 93 72
4 96 97 72 93
4 96 98 97 93
4 85 96 74 99
4 96 98 93 99
4 98 89 100 93
4 101 102 100 103
4 104 105 101 106
4 107 58 57 60
4 58 107 57 56
4 53 108 109 55
4 56 110 109 54
4 53 111 109 108
4 112 53 109 52
4 111 112 113 53
4 112 111 113 114
4 115 116 114 117
4 40 28 115 117
4 45 117 118 28
4 119 28 25 44
4 120 44 121 122
4 123 121 124 125
4 125 123 126 124
4 127 128 21 124
4 16 129 128 21
4 16 18 14 130
4 16 17 18 19
4 131 17 132 18
4 16 19 18 21
4 133 16 19 134
4 135 134 133 136
4 135 137 136 138
4 137 134 139 140
4 141 142 143 144
4 145 146 147 7
4 142 148 147 146
4 7 146 147 149
4 10 7 9 146
4 145 150 7 151
4 152 151 150 153
4 16 128 154 124
4 124 21 121 133
4 25 28 30 44
4 28 38 45 40
4 45 47 40 42
4 155 45 156 47
4 157 156 47 155
4 155 45 40 117
4 45 42 158 159
4 44 42 43 158
4 119 45 158 159
4 120 44 158 119
4 25 127 21 121
4 25 27 160 30
4 127 25 160 30
4 25 127 121 30
4 44 25 121 30
4 28 30 44 29
4 119 28 44 45
4 119 28 118 25
4 28 24 26 161
4 26 32 29 28
4 28 31 29 38
4 46 38 41 39
4 46 38 39 40
4 28 117 40 45
4 118 28 117 161
4 162 24 118 161
4 118 119 163 164
4 136 119 164 163
4 25 133 21 163
4 128 16 21 124
4 165 166 153 154
4 166 167 168 169
4 167 168 169 170
4 171 168 172 166
4 124 173 126 154
4 123 121 133 124
4 120 125 122 121
4 122 158 44 43
4 47 46 40 42
4 52 50 174 48
4 175 50 174 54
4 176 175 177 178
4 179 60 180 181
4 64 69 63 65
4 68 72 67 66
4 70 73 182 71
4 74 79 183 75
4 184 78 185 79
4 79 184 186 187
4 186 184 188 187
4 184 189 190 191
4 184 78 79 186
4 78 189 184 191
4 189 184 190 188
4 184 78 191 192
4 184 78 192 185
4 192 78 80 185
4 193 80 194 185
4 195 81 196 194
4 81 79 196 194
4 197 187 196 198
4 187 79 185 196
4 79 184 187 185
4 197 199 187 198
4 199 197 187 200
4 199 200 187 186
4 78 201 79 186
4 189 201 87 78
4 202 201 79 74
4 201 74 92 87
4 201 202 92 74
4 201 202 79 186
4 202 203 74 79
4 202 198 203 79
4 204 202 199 203
4 202 203 205 74
4 202 204 205 203
4 182 203 74 205
4 74 203 183 79
4 79 203 183 198
4 79 81 198 183
4 81 79 198 196
4 187 79 196 198
4 202 198 79 186
4 202 204 94 205
4 94 95 205 206
4 207 208 209 210
4 208 207 211 210
4 104 103 211 65
4 104 60 212 213
4 214 215 216 217
4 218 219 220 221
4 222 174 220 221
4 46 39 222 174
4 52 46 40 48
4 40 49 52 48
4 53 49 52 113
4 40 49 155 113
4 155 45 47 40
4 157 47 223 155
4 49 223 224 48
4 52 50 51 54
4 175 54 57 178
4 218 175 54 57
4 225 219 54 57
4 218 175 57 177
4 57 217 219 218
4 219 225 226 57
4 225 227 226 57
4 59 110 57 227
4 59 60 61 228
4 61 60 213 228
4 64 61 213 228
4 63 61 213 64
4 61 104 211 65
4 180 60 104 62
4 58 229 62 180
4 58 60 180 62
4 60 61 104 62
4 60 226 230 212
4 226 60 213 212
4 60 104 212 230
4 179 60 230 104
4 104 211 231 62
4 180 229 62 232
4 180 232 62 231
4 179 60 104 180
4 233 181 105 179
4 181 105 179 230
4 105 214 106 230
4 105 214 230 177
4 215 214 218 217
4 215 217 218 219
4 218 215 219 221
4 218 175 174 54
4 39 52 220 174
4 39 46 52 174
4 115 52 112 35
4 28 115 117 161
4 162 118 116 161
4 24 162 118 163
4 20 19 234 163
4 25 133 163 119
4 120 119 158 235
4 236 119 235 159
4 235 119 158 159
4 119 235 133 136
4 138 235 236 164
4 45 47 42 159
4 46 38 40 42
4 49 50 52 48
4 237 175 176 178
4 181 233 177 176
4 180 179 231 104
4 207 103 65 211
4 207 103 68 65
4 65 66 103 68
4 103 66 97 93
4 66 103 97 63
4 213 104 63 238
4 238 97 103 63
4 104 102 103 238
4 104 106 212 230
4 214 212 106 230
4 214 212 216 106
4 214 212 217 216
4 214 212 230 217
4 226 217 230 212
4 226 60 230 57
4 181 60 57 230
4 179 105 104 230
4 179 105 101 104
4 104 239 103 101
4 239 101 240 100
4 91 241 240 100
4 241 239 240 100
4 239 241 103 100
4 103 210 93 241
4 103 207 93 210
4 210 103 231 239
4 103 239 104 231
4 103 104 63 65
4 65 66 63 103
4 65 66 68 69
4 68 72 66 93
4 96 98 242 97
4 85 96 99 243
4 85 86 99 74
4 86 89 99 74
4 88 86 244 92
4 74 86 92 87
4 201 244 87 92
4 244 86 87 92
4 90 74 92 94
4 94 95 206 245
4 95 209 206 245
4 245 207 95 209
4 208 232 231 211
4 180 104 231 62
4 181 60 107 57
4 54 175 51 178
4 50 52 174 54
4 246 36 52 247
4 246 36 37 35
4 52 31 36 35
4 31 39 52 36
4 39 46 222 41
4 39 222 174 220
4 174 218 220 221
4 218 219 54 220
4 225 219 220 54
4 56 110 54 57
4 110 56 59 57
4 60 59 226 228
4 60 226 213 228
4 57 217 230 226
4 214 217 230 218
4 218 57 230 177
4 181 105 230 177
4 179 60 181 230
4 58 107 180 60
4 229 107 58 248
4 229 107 180 58
4 60 58 59 62
4 58 107 56 248
4 108 56 109 55
4 108 56 55 248
4 107 56 55 57
4 107 181 57 178
4 57 181 177 178
4 181 176 177 178
4 233 181 177 105
4 249 239 101 240
4 91 89 241 100
4 89 91 241 90
4 210 245 93 241
4 245 241 90 93
4 93 94 90 245
4 74 202 92 94
4 205 204 94 206
4 202 198 199 203
4 202 198 186 199
4 199 197 200 250
4 199 186 187 198
4 200 186 188 187
4 184 189 186 188
4 201 189 87 244
4 189 201 78 186
4 201 78 79 87
4 189 78 184 186
4 186 79 187 198
4 74 201 79 87
4 74 79 84 87
4 79 78 84 87
4 77 78 84 79
4 74 77 84 79
4 74 85 84 76
4 83 243 76 85
4 85 96 243 76
4 73 96 74 76
4 96 93 74 99
4 89 93 99 74
4 93 94 74 90
4 93 94 245 95
4 207 95 68 93
4 95 70 68 93
4 95 70 74 205
4 74 70 182 205
4 94 95 74 205
4 241 89 90 93
4 104 179 231 239
4 181 60 180 107
4 107 57 55 178
4 57 54 55 178
4 53 49 51 52
4 40 49 113 52
4 155 47 223 48
4 45 47 159 156
4 119 156 45 159
4 120 44 119 121
4 16 173 124 154
4 166 167 169 145
4 145 7 147 251
4 9 7 252 149
4 253 254 252 255
4 256 253 255 254
4 6 9 252 255
4 253 257 149 252
4 7 258 259 260
4 260 261 251 170
4 169 260 251 170
4 169 251 167 170
4 166 167 145 171
4 16 22 18 130
4 25 24 20 23
4 24 25 118 28
4 119 156 118 45
4 119 28 45 118
4 119 45 44 158
4 44 38 28 29
4 25 28 26 30
4 25 24 26 28
4 24 20 234 163
4 162 24 234 163
4 163 119 118 25
4 235 135 133 136
4 135 134 140 133
4 145 141 153 144
4 145 260 169 151
4 0 258 4 5
4 259 258 262 263
4 264 259 262 263
4 258 7 262 0
4 260 258 259 261
4 258 261 263 259
4 261 258 263 265
4 261 260 251 259
4 167 251 169 145
4 145 260 251 169
4 166 167 171 168
4 16 171 153 140
4 137 135 136 134
4 138 135 235 136
4 235 138 136 164
4 236 119 156 164
4 157 156 159 47
4 155 47 48 40
4 40 49 48 155
4 46 52 174 48
4 247 225 220 54
4 110 225 57 227
4 60 59 57 226
4 104 61 211 62
4 232 211 62 231
4 103 104 211 231
4 239 210 103 241
4 241 93 103 100
4 68 72 93 70
4 103 207 68 93
4 207 103 211 210
4 210 208 231 211
4 103 210 231 211
4 245 207 210 93
4 245 207 209 210
4 245 207 93 95
4 70 95 74 93
4 70 73 74 182
4 182 203 183 74
4 202 74 205 94
4 93 89 90 74
4 89 241 100 93
4 93 98 103 100
4 101 104 102 103
4 104 101 102 106
4 106 238 104 212
4 266 216 212 106
4 106 238 212 266
4 106 238 102 104
4 267 266 238 102
4 97 102 267 238
4 106 238 266 102
4 97 102 238 103
4 97 102 103 98
4 97 102 98 267
4 97 98 242 267
4 96 98 99 242
4 89 98 99 93
4 239 101 100 103
4 104 179 239 101
4 179 249 239 101
4 105 179 101 249
4 233 105 249 179
4 177 181 57 230
4 175 57 177 178
4 175 237 51 178
4 55 54 51 178
4 112 111 109 53
4 112 53 52 113
4 117 115 113 114
4 116 118 117 161
4 115 116 117 161
4 28 115 161 32
4 29 32 26 34
4 26 30 29 27
4 34 26 29 27
4 29 34 31 32
4 31 115 32 35
4 31 115 28 32
4 246 112 52 35
4 246 247 52 54
4 247 110 225 54
4 59 227 57 226
4 213 104 238 212
4 104 103 63 238
4 97 98 103 93
4 70 73 72 74
4 71 182 268 73
4 182 75 268 73
4 182 75 183 268
4 183 81 268 75
4 182 75 74 183
4 79 81 183 75
4 79 81 80 194
4 78 192 80 82
4 192 193 80 82
4 269 193 192 82
4 193 192 80 185
4 80 79 194 185
4 77 74 75 79
4 85 96 76 74
4 96 243 242 99
4 98 102 103 100
4 104 105 106 230
4 214 218 230 177
4 50 175 51 54
4 49 155 223 48
4 157 156 236 159
4 236 119 159 156
4 235 119 164 136
4 236 119 164 235
4 133 235 120 123
4 120 235 133 119
4 135 123 235 133
4 124 173 123 126
4 173 172 126 154
4 166 171 154 172
4 172 171 154 173
4 171 16 154 173
4 171 166 154 153
4 16 171 154 153
4 124 173 16 133
4 124 173 133 123
4 25 133 119 121
4 19 16 133 21
4 163 19 133 21
4 134 19 133 136
4 133 119 136 163
4 133 19 163 136
4 132 20 18 19
4 20 132 234 19
4 20 19 163 21
4 22 20 21 18
4 16 22 21 18
4 128 129 127 21
4 160 129 21 127
4 160 21 25 127
4 25 20 21 23
4 25 27 23 160
4 25 27 30 26
4 23 22 21 160
4 16 129 21 22
4 128 130 165 270
4 128 130 270 129
4 128 130 16 165
4 16 165 153 154
4 17 16 14 153
4 131 17 18 14
4 17 141 153 15
4 12 10 15 153
4 15 17 14 153
4 153 16 14 130
4 16 129 22 130
4 128 130 129 16
4 16 128 165 154
4 151 166 153 165
4 260 145 7 151
4 9 6 252 7
4 7 262 252 149
4 260 259 7 251
4 7 259 147 251
4 264 259 271 149
4 259 7 147 149
4 146 148 147 149
4 271 259 147 149
4 148 271 147 149
4 146 142 143 141
4 144 141 140 139
4 141 134 140 139
4 143 141 144 139
4 142 145 141 146
4 145 142 141 144
4 148 142 143 146
4 145 7 10 146
4 145 150 151 153
4 151 272 150 7
4 151 272 273 150
4 151 272 4 273
4 4 272 2 273
4 151 272 7 4
4 4 260 7 151
4 166 145 151 153
4 166 145 169 151
4 171 166 153 145
4 133 16 140 173
4 124 16 21 133
4 25 21 160 23
4 21 129 160 22
4 121 21 124 127
4 121 120 133 119
4 123 121 125 120
4 123 121 120 133
4 25 133 121 21
4 25 20 163 21
4 118 24 28 161
4 26 28 161 32
4 40 115 28 31
4 115 52 113 112
4 246 112 109 52
4 246 52 109 54
4 56 54 109 55
4 56 107 55 248
4 58 60 59 57
4 63 61 65 104
4 68 72 70 67
4 182 75 73 74
4 77 79 75 80
4 196 79 185 194
4 79 78 185 80
4 77 78 82 84
4 83 77 82 84
4 77 74 84 76
4 96 74 93 72
4 103 66 93 68
4 65 66 69 63
4 63 61 104 213
4 61 60 104 213
4 59 227 226 228
4 274 110 227 225
4 246 36 247 37
4 246 36 35 52
4 52 115 40 31
4 28 31 38 40
4 44 42 158 45
4 120 44 122 158
4 135 133 140 173
4 171 16 173 140
4 171 144 153 140
4 141 144 140 153
4 10 141 15 153
4 10 12 15 13
4 10 8 12 13
4 8 10 12 11
4 8 9 11 255
4 9 253 149 252
4 257 262 149 252
4 262 259 149 7
4 258 7 4 260
4 259 258 7 262
4 262 0 7 252
4 0 6 7 252
4 254 6 252 255
4 0 3 6 252
4 6 3 254 252
4 272 6 11 7
4 4 6 272 7
4 4 6 2 272
4 9 6 11 255
4 9 253 252 255
4 262 264 257 149
4 257 264 275 271
4 259 264 262 149
4 257 264 271 149
4 9 146 7 149
4 10 7 11 9
4 7 12 10 11
4 145 150 153 12
4 12 145 10 153
4 145 146 10 141
4 145 142 147 146
4 171 145 153 144
4 171 142 145 144
4 142 171 145 167
4 142 145 147 167
4 167 145 147 251
4 145 260 7 251
4 145 150 12 7
4 12 145 7 10
4 12 152 153 14
4 152 153 14 130
4 152 151 153 165
4 165 152 276 270
4 152 151 165 276
4 165 152 270 130
4 152 151 276 150
4 276 150 151 273
4 272 7 11 150
4 7 12 11 150
4 153 150 152 12
4 165 16 153 130
4 165 152 130 153
4 15 12 153 14
4 13 131 14 15
4 17 131 15 14
4 17 132 18 19
4 25 24 163 20
4 25 24 118 163
4 119 156 164 118
4 118 117 45 156
4 155 45 117 156
4 113 40 117 155
4 50 49 224 48
4 49 50 224 51
4 50 237 224 51
4 237 50 175 51
4 52 54 220 174
4 52 247 220 54
4 39 247 220 52
4 39 247 52 36
4 115 52 35 31
4 40 115 52 113
4 40 115 113 117
4 115 112 113 114
4 53 52 51 54
4 54 53 109 55
4 52 53 109 54
4 110 246 109 54
4 247 110 54 246
4 247 110 274 225
4 246 274 37 247
4 247 110 246 274
4 110 225 54 57
4 57 217 226 219
4 57 217 218 230
4 219 218 54 57
4 218 54 174 220
4 46 39 52 40
4 39 31 52 40
4 38 42 45 40
4 28 38 44 45
4 121 25 44 119
4 123 135 173 133
4 134 153 140 16
4 134 16 140 133
4 137 135 134 140
4 134 153 141 140
4 134 153 16 17
4 16 17 19 134
4 134 153 17 141
4 153 145 10 141
4 6 9 11 7
4 258 7 0 4
4 1 0 2 5

CELL_TYPES 734
10
10
10
10
10
10
10
10
10
10
10
10
10
10
10
10
10
10
10
10
10
10
10
10
10
10
10
10
10
10
10
10
10
10
10
10
10
10
10
10
10
10
10
10
10
10
10
10
10
10
10
10
10
10
10
10
10
10
10
10
10
10
10
10
10
10
10
10
10
10
10
10
10
10
10
10
10
10
10
10
10
10
10
10
10
10
10
10
10
10
10
10
10
10
10
10
10
10
10
10
10
10
10
10
10
10
10
10
10
10
10
10
10
10
10
10
10
10
10
10
10
10
10
10
10
10
10
10
10
10
10
10
10
10
10
10
10
10
10
10
10
10
10
10
10
10
10
10
10
10
10
10
10
10
10
10
10
10
10
10
10
10
10
10
10
10
10
10
10
10
10
10
10
10
10
10
10
10
10
10
10
10
10
10
10
10
10
10
10
10
10
10
10
10
10
10
10
10
10
10
10
10
10
10
10
10
10
10
10
10
10
10
10
10
10
10
10
10
10
10
10
10
10
10
10
10
10
10
10
10
10
10
10
10
10
10
10
10
10
10
10
10
10
10
10
10
10
10
10
10
10
10
10
10
10
10
10
10
10
10
10
10
10
10
10
10
10
10
10
10
10
10
10
10
10
10
10
10
10
10
10
10
10
10
10
10
10
10
10
10
10
10
10
10
10
10
10
10
10
10
10
10
10
10
10
10
10
10
10
10
10
10
10
10
10
10
10
10
10
10
10
10
10
10
10
10
10
10
10
10
10
10
10
10
10
10
10
10
10
10
10
10
10
10
10
10
10
10
10
10
10
10
10
10
10
10
10
10
10
10
10
10
10
10
10
10
10
10
10
10
10
10
10
10
10
10
10
10
10
10
10
10
10
10
10
10
10
10
10
10
10
10
10
10
10
10
10
10
10
10
10
10
10
10
10
10
10
10
10
10
10
10
10
10
10
10
10
10
10
10
10
10
10
10
10
10
10
10
10
10
10
10
10
10
10
10
10
10
10
10
10
10
10
10
10
10
10
10
10
10
10
10
10
10
10
10
10
10
10
10
10
10
10
10
10
10
10
10
10
10
10
10
10
10
10
10
10
10
10
10
10
10
10
10
10
10
10
10
10
10
10
10
10
10
10
10
10
10
10
10
10
10
10
10
10
10
10
10
10
10
10
10
10
10
10
10
10
10
10
10
10
10
10
10
10
10
10
10
10
10
10
10
10
10
10
10
10
10
10
10
10
10
10
10
10
10
10
10
10
10
10
10
10
10
10
10
10
10
10
10
10
10
10
10
10
10
10
10
10
10
10
10
10
10
10
10
10
10
10
10
10
10
10
10
10
10
10
10
10
10
10
10
10
10
10
10
10
10
10
10
10
10
10
10
10
10
10
10
10
10
10
10
10
10
10
10
10
10
10
10
10
10
10
10
10
10
10
10
10
10
10
10
10
10
10
10
10
10
10
10
10
10
10
10
10
10
10
10
10
10
10
10
10
10
10
10
10
10
10
10
10
10
10
10
10
10
10
10
10
10
10
10
10
10
10
10
10
10
10
10
10
10
10
10
10
10
10
10
10
10
10
10
10
10
10
10
10
10
10
10
10
10
10
10
10
10
10
10
10
10
10
10
10
10
10
10
10
10
10
10
10
10
10
10
10
10
10
10
10
10
10
10
10
10

CELL_DATA 734
SCALARS potentialEnergy FLOAT 1
LOOKUP_TABLE default
81.731789
32.520683
100.532562
236.602798
104.554520
120.609245
33.180954
122.370071
110.706757
100.464836
30.476473
56.022221
22.956093
225.789932
119.573082
48.264660
53.262012
59.057693
86.811607
69.794666
37.324480
18.399147
35.780411
45.706886
68.398117
38.399828
102.730278
46.638798
58.309498
82.916512
198.495728
66.706680
140.838867
120.524239
166.671860
98.930206
145.961105
81.855873
152.147171
190.449310
129.511925
53.538517
44.804462
135.100662
198.328949
62.823662
62.387756
86.254921
146.875854
113.459587
139.402374
143.771011
228.021790
94.844498
189.204163
76.002655
47.984951
69.924149
43.390057
39.605743
34.096861
89.187630
55.530346
50.837208
20.294977
34.145874
51.542034
47.595745
80.470833
26.968346
50.232346
70.102161
34.834871
113.469917
68.012924
94.927887
146.388687
65.008907
110.901131
99.624588
56.169132
86.423073
55.466217
103.904617
94.551598
225.594315
82.396248
121.895142
37.355957
179.261230
131.160271
94.367134
47.088619
63.970417
73.230251
81.094185
53.862068
24.899197
46.660591
60.503761
40.962141
96.841156
59.920296
133.090103
87.314796
55.917095
22.349927
34.991667
29.305811
33.139355
25.231386
52.081734
47.077404
59.768021
32.026522
149.797302
126.846199
22.485896
58.638412
32.050634
69.493050
183.411774
129.532990
107.757469
144.551453
99.337746
179.305038
98.890129
52.619976
130.757721
132.446365
59.053368
44.524002
74.668816
49.596378
185.387848
143.072266
77.830879
154.546600
167.597580
106.591522
88.553230
80.338058
193.102295
78.676453
144.362442
61.450245
77.125504
83.251465
70.825108
159.775009
243.377121
120.423370
139.857224
67.165012
133.064484
133.913918
167.032318
220.560883
91.016335
105.120438
261.805710
393.805786
119.529236
122.550171
106.535309
106.383553
199.872086
85.943214
168.453598
95.297531
107.888313
127.727715
156.745728
109.086990
176.762238
187.905075
101.531181
32.122053
71.177486
56.113377
113.721107
27.501982
39.652912
109.877632
80.202469
32.286366
12.059026
41.616085
50.040577
51.457150
70.309509
56.531456
29.190912
112.038429
95.292084
61.927921
121.875641
51.090874
71.545113
53.990715
41.327585
66.371792
91.440872
75.413094
125.473633
124.186378
57.700996
29.732903
47.478058
142.515045
41.822107
57.318977
66.745327
54.427631
94.754936
32.582081
29.352392
41.172947
44.910042
139.601013
30.001314
71.046295
51.658249
23.736100
22.882995
75.514465
99.657364
164.378265
89.010002
56.386730
13.376881
83.975960
106.286896
39.129978
37.750399
87.483696
126.382347
18.705002
69.797394
115.195518
104.661232
68.968105
46.957882
66.496883
90.772293
91.143089
127.306526
232.895676
137.340736
150.430298
70.911411
267.276031
41.946255
90.870308
28.905153
26.075127
31.159431
27.628698
52.410984
83.674911
55.943344
110.849213
40.547215
62.128510
27.281801
54.477657
64.530399
62.366318
120.059402
170.669159
55.323299
58.716599
46.341114
298.058472
193.102203
249.529510
77.962822
90.745399
69.068184
59.200493
131.181091
333.409058
261.149811
251.972229
104.857506
61.699028
171.097290
132.230370
48.460239
66.244835
32.335548
134.817978
30.570753
126.005775
99.761719
78.906769
75.174416
120.833282
88.237526
55.001041
74.019081
61.206413
26.409525
40.413912
34.619997
73.155933
55.054153
54.458740
72.690948
71.953548
70.262634
61.155025
24.929192
38.904905
113.549919
21.942558
36.992125
39.179253
54.120178
70.164806
191.529724
162.760147
72.493179
90.019806
88.677002
54.762119
120.186058
138.032501
101.641029
304.966431
380.867188
99.712334
252.501541
224.827682
191.620178
119.909088
137.870903
104.562500
136.017998
114.246635
91.978134
196.434479
96.565918
134.274635
99.547783
89.131844
235.636917
331.525055
288.142487
197.443100
224.780792
103.032333
40.061687
80.930984
125.220428
425.749603
211.247025
158.886780
244.877167
246.696014
148.057205
40.021608
42.720016
107.109192
60.586555
47.744781
12.462236
139.034882
84.461876
30.283184
76.937004
198.739548
195.404251
244.247971
118.502945
165.518677
140.935410
162.109039
44.528549
77.361435
115.439293
129.933983
118.558968
281.377380
79.428093
37.803450
147.032593
20.817122
57.878052
36.722675
56.909267
27.546984
18.961536
35.815807
82.351891
79.301147
108.884865
74.247353
195.000824
99.675171
38.407875
205.585602
144.686859
98.094810
136.712578
99.075386
46.196445
124.351944
204.623001
92.086998
156.385818
180.342712
72.396114
36.308584
30.963165
62.069557
73.202229
30.992807
24.456780
78.726990
61.116283
55.030041
60.941833
104.479774
28.533119
116.445480
69.748245
229.280563
312.110809
240.611954
100.480354
41.066500
88.683014
182.396591
86.697319
319.294800
254.043915
151.159882
78.145393
383.329132
36.973415
152.503296
146.995529
37.718586
37.252060
111.344055
42.742802
45.551720
46.080425
126.580338
74.145775
23.701964
189.116989
167.680954
81.480858
64.745586
41.544350
112.204681
101.784111
51.675335
33.629967
27.940561
32.561237
63.722794
188.252304
29.531586
37.491814
19.166287
36.235317
133.370125
100.910278
63.487679
35.644575
50.943878
47.481979
56.189198
85.437920
56.720421
94.276497
109.167130
60.665817
39.968700
115.394882
96.485390
91.283821
204.636978
158.794983
83.113220
134.973221
126.323044
54.233990
102.357300
93.464729
151.220688
159.651886
96.557617
89.110046
69.459225
106.635414
92.482231
326.546082
155.108078
123.041710
32.729839
44.700485
96.657845
15.869149
154.587402
123.997566
68.701328
38.574411
57.318657
27.449362
80.034454
51.133011
99.680893
98.708015
129.922447
172.002869
254.176880
133.756332
105.036827
75.107643
54.253174
80.673897
34.000406
123.298225
13.121731
17.339846
21.657418
38.541258
23.493361
80.430008
92.824852
163.223969
152.115768
34.811481
104.916870
38.862444
40.679216
95.535408
66.013577
182.630417
136.989624
202.531723
116.264847
134.277336
55.860569
107.746628
105.272240
71.932648
63.737160
61.467533
51.280373
107.861748
125.608437
95.579437
144.596695
119.794792
233.312943
120.362854
105.388351
143.324966
151.345078
128.082146
101.472763
131.407356
88.359528
115.201035
146.708817
414.918762
136.138985
108.540352
65.833496
188.509903
194.552567
76.256699
158.663895
144.865662
27.443127
48.327023
217.881149
252.021133
187.111099
130.469421
68.573502
41.910395
56.986328
108.195595
87.894081
33.112162
87.392578
52.393635
25.534347
33.247833
73.913532
137.654114
101.915741
32.614614
99.388496
70.470276
28.692184
53.107895
117.612358
156.258514
269.809052
130.872917
178.136063
129.325340
94.202919
166.846985
157.685715
66.043221
305.805328
113.502548
116.362236
130.516678
35.940704
28.854473
75.601768
141.641434
60.784084
41.061039
153.541580
42.227360
96.289398
144.721832
164.301987
184.920166
74.259209
58.066319
215.386749
84.696533
226.338226
106.209557
55.697220
83.772858
62.896351
113.842361
73.987942
72.433792
146.548553
394.545929
380.666260
285.402374
147.146759
182.586243
272.060547
92.112976
56.602047
102.068954
179.652405
63.241589
65.132683
157.825424
189.770065
155.922058
145.217209
134.544014
168.175034
127.833214
120.871269
180.613678
145.600250
129.912918
186.360352
37.503405
34.253773
78.634750
116.565071
168.181503
104.091812
107.942039
127.771866
110.665337
228.693573
93.190826
151.654816
303.844696
125.950806
200.259125
148.673935
34.311806
48.410660
42.972824
214.423340
66.272926
51.314243
101.871086
55.729340
28.470154
71.282192
146.291214
72.638069
22.723787
36.247185
34.898731
131.956474
69.653755
100.135086
47.129391
22.738850
28.729576
39.871193
56.606812
52.964626
52.421680
30.974091
31.091263
67.349018
72.841476
67.957218
86.396393
153.484512
76.732399
87.756271
28.219870
186.339798
61.307987
67.783318
73.655048
74.172760
157.698669
123.929848
70.922977
137.112267
146.547577
101.424789
132.227119
133.808884
537.087769
134.142639
66.354134

