# vtk DataFile Version 3.1
Tetrahedral Mesh Visualization
ASCII
DATASET UNSTRUCTURED_GRID

POINTS 277 FLOAT
0.000000 1.378113 1.754166
0.000000 0.000000 0.000000
2.000735 -0.010439 0.014070
0.000000 1.666667 0.000000
2.421165 -0.013915 1.750207
0.000000 0.000000 1.666667
1.695520 2.457396 0.009015
3.000197 2.440907 2.336882
4.005150 4.978567 0.019091
3.077987 4.985352 1.660144
5.214208 4.979166 1.631260
3.495058 3.159444 0.019647
5.415745 3.277431 0.024965
6.004492 4.975501 0.025146
7.376253 3.313271 0.032756
6.969860 4.979461 1.352806
9.257117 2.162441 2.066072
8.690327 4.985950 1.638224
9.364859 3.324340 0.038871
10.657782 4.994198 1.687048
11.369935 3.325493 0.052063
11.127300 1.858584 1.608685
10.704863 1.668122 0.047543
12.712298 1.658100 0.073543
13.377685 3.315222 0.082765
12.993108 1.860208 1.571421
14.720166 1.647854 0.116720
14.047185 -0.012965 0.103413
15.484412 2.129287 1.820345
15.352559 -0.011054 1.793526
13.348197 -0.015842 1.753875
17.314053 -0.002329 1.796064
16.728207 1.662001 0.165346
18.060305 -0.003297 0.207001
16.059559 -0.008690 0.156247
18.733521 1.658431 0.223488
19.037199 -0.006592 1.554780
20.067394 -0.006010 0.259401
16.716421 -0.006511 3.475855
18.982536 0.001406 3.346986
17.686661 2.685215 3.131236
17.933825 0.005821 5.211114
16.620369 1.670283 5.161901
15.942922 -0.000898 5.153636
14.666345 -0.021590 3.447147
15.747387 2.880808 3.486136
18.660711 1.707142 5.219840
17.244164 3.348811 5.170543
19.209936 3.397273 5.226651
19.296146 4.997469 3.553221
20.920607 3.675528 5.273959
21.296997 4.991193 3.613461
19.624949 2.486553 2.596297
20.674267 4.987490 1.927549
21.910730 2.505620 2.778879
22.677546 4.994555 1.995574
23.362896 3.394032 0.350788
23.970057 2.454548 2.681292
25.067085 3.676200 0.410374
25.066862 1.887827 0.413599
25.995394 2.504619 2.178627
27.330917 1.685148 0.494808
26.778412 3.378650 0.468515
29.275944 -0.007186 2.180764
28.063131 -0.017700 0.530635
29.376736 1.660905 0.564343
30.995382 -0.011767 1.951456
32.064514 -0.015795 0.680389
31.373194 1.647707 0.639912
30.057507 -0.011703 0.591399
33.340458 1.639234 0.722511
34.064289 -0.010685 0.750921
32.682888 -0.006215 2.316303
34.594711 -0.005950 2.459353
34.973194 2.402660 3.322039
36.501770 -0.005374 2.663254
35.088779 -0.001668 4.178341
36.771374 0.000974 4.398101
38.185349 2.532835 5.926329
37.688377 2.154573 3.083584
38.282150 -0.003350 3.458124
38.058830 -0.020884 0.922530
37.878143 0.006170 5.905105
35.887703 0.002718 5.820003
36.449036 1.754626 5.842661
34.825138 1.337431 5.783426
34.742134 3.135147 5.781898
36.647816 3.487488 5.850470
33.893898 5.001420 5.739598
32.590271 3.308819 5.687277
33.227592 4.997361 4.053931
31.900106 5.012272 5.652977
35.110180 4.992601 4.176654
32.187477 2.596867 3.096277
34.608475 4.994836 2.457083
32.708008 3.314907 0.687116
33.160305 0.003999 4.037263
30.942141 -0.003981 3.738326
31.209446 1.668083 5.630109
33.143379 1.616148 5.714868
30.568569 3.345173 5.609305
28.574963 3.345923 5.533037
29.233395 1.675801 5.557888
30.004934 2.506001 3.058808
27.950340 2.497529 2.986873
26.581455 3.345954 5.462207
27.242702 1.678442 5.496485
24.677202 4.998215 2.066063
22.067026 4.993797 0.311776
21.400276 3.333381 0.287568
22.807901 1.705188 0.327826
20.061396 4.985288 0.244670
19.396355 3.325573 0.233768
18.669901 4.996902 1.870264
18.055050 4.998837 0.190531
17.391359 3.331610 0.174964
16.044243 4.983654 0.136633
16.667164 4.993024 1.816716
14.667570 4.991583 1.766773
13.675043 2.945227 3.354301
12.954841 1.316825 5.080480
12.657548 -0.022495 3.412374
13.951677 -0.008271 5.106654
11.247179 1.612101 5.051073
10.651340 -0.014235 3.388424
11.962534 -0.010564 5.069712
9.974298 0.000932 5.056787
11.341706 -0.003175 1.724911
9.323379 -0.003429 1.708056
10.032252 0.008428 0.040802
8.707624 1.658389 0.031952
8.008375 4.987702 0.029602
10.015274 4.993554 0.032663
11.212593 2.631960 3.327484
9.243355 4.991555 3.325662
10.710899 3.311114 5.040076
11.292540 4.994143 3.357888
9.973081 5.003392 5.026566
11.957967 5.011356 5.040112
7.976661 5.002956 5.021355
8.717263 3.389945 5.028361
6.960192 4.981252 3.137472
5.347600 3.364230 5.026476
5.988531 4.998913 5.022954
7.014420 3.673722 5.029074
5.138841 2.351227 3.162663
4.622488 4.988152 3.309292
3.483408 3.188855 5.014032
3.991930 5.003611 5.011262
2.369944 4.991008 3.289717
4.848563 1.581049 0.022145
4.906854 -0.021526 1.903368
6.741065 1.633137 0.028412
7.011300 2.532110 2.221381
8.649374 -0.012089 3.381287
17.297750 5.002655 3.498042
15.299168 4.997562 3.447732
15.934117 5.010263 5.133666
14.659060 1.609343 5.114316
15.204507 3.309171 5.122269
12.039333 0.001799 0.067098
15.383383 3.314367 0.129388
14.043015 4.979462 0.086346
12.664802 4.991580 1.719525
13.300841 4.992574 3.395964
7.251505 -0.018432 1.727407
6.663864 -0.025178 3.414634
4.900637 1.641086 5.027304
5.982705 -0.012058 5.035193
4.909553 -0.016468 3.690489
3.990552 -0.008436 5.024078
7.031146 1.877044 5.027258
7.981146 -0.006244 5.038620
9.254610 1.692131 5.039048
20.923973 1.886955 5.280284
22.624489 3.392793 5.340752
23.915054 4.998721 5.382293
24.583315 3.349744 5.404583
23.293158 4.997314 3.691087
27.294359 5.006324 3.808227
26.675249 4.995870 2.121544
25.296022 5.004745 3.756436
35.224491 1.601041 0.797705
36.908566 1.442840 0.865285
39.934250 3.256332 4.605663
39.973503 1.630697 3.586700
38.286564 4.991467 3.430184
40.004303 3.242122 2.876448
39.941628 5.007854 4.298687
37.881142 5.014432 5.891689
39.873341 5.021969 5.969758
39.889809 3.345201 5.979340
39.886105 1.677390 5.985914
39.947872 0.003387 4.322419
40.010357 -0.008003 2.660532
40.057808 -0.026784 0.990106
40.079708 1.636584 0.986383
40.080009 3.297915 0.976914
38.388012 2.432513 0.916227
38.081882 4.958367 0.881300
40.009796 4.988451 2.626908
36.784893 4.992262 4.387377
36.522579 4.988567 2.649583
36.589603 3.163130 0.845381
36.076767 4.986968 0.815241
34.669140 3.297349 0.767296
34.073013 4.991222 0.743682
30.724888 3.320707 0.605411
30.073689 4.984696 0.573888
32.074497 4.987513 0.657353
30.669111 4.998811 2.266631
28.733829 3.335438 0.534772
26.688047 0.011818 3.867534
27.269152 -0.002120 2.189363
25.234961 1.686764 5.432923
23.919975 0.012976 5.392601
25.914001 0.012301 5.461113
24.958660 0.017003 4.102453
23.184156 1.709670 5.369971
23.244553 0.014416 3.751969
21.243694 0.000349 3.603628
21.923191 -0.002105 5.319729
19.926338 -0.000686 5.259314
17.929918 5.013360 5.181448
19.928616 4.999674 5.240211
22.761446 0.010442 2.027603
25.005823 0.006193 2.309361
24.070156 0.006563 0.374919
26.062992 -0.004122 0.455255
26.066957 4.990890 0.436453
25.666431 2.243797 3.927252
28.674980 5.005651 2.190107
28.063919 4.989644 0.501817
25.921869 5.005856 5.444152
12.034330 4.983272 0.045415
12.954808 3.115741 5.071327
13.943735 5.012451 5.078934
21.913839 4.999134 5.307078
28.692249 0.000899 3.855187
29.285910 5.008211 3.882638
29.904488 5.020537 5.575416
31.269676 5.003641 3.962921
31.891861 0.015896 5.670914
33.890060 0.003740 5.751356
35.892078 5.005630 5.813323
32.649662 4.992590 2.352021
20.749962 1.667060 0.269977
20.752470 0.001745 1.892357
24.075537 5.003431 0.377195
27.913538 5.019342 5.496140
40.083858 4.960401 0.961850
3.178456 1.461395 5.016404
0.000000 3.103853 1.750106
0.000000 5.000000 1.666667
0.000000 3.333333 0.000000
2.001639 4.986225 0.009595
0.000000 5.000000 0.000000
0.000000 5.000000 3.333333
0.000000 0.000000 3.333333
1.695578 2.461809 5.007357
3.037360 -0.012462 3.407167
1.997906 -0.009895 5.012221
0.000000 2.403264 3.370902
0.000000 1.666667 5.000000
0.000000 3.333333 5.000000
0.000000 0.000000 5.000000
27.908279 0.006746 5.525251
29.896820 0.009668 5.596198
36.057838 -0.000565 0.822355
39.882832 0.010208 5.981860
8.024835 -0.006545 0.035643
1.996458 4.993501 5.008792
3.165494 1.436030 0.018618
4.005275 -0.020411 0.023597
22.072552 0.012237 0.310056
0.000000 5.000000 5.000000
6.014314 -0.017422 0.033613

CELLS 734 3670
4 0 1 2 3
4 0 4 2 5
4 0 3 2 6
4 4 6 0 2
4 4 6 7 0
4 8 9 10 11
4 12 13 14 15
4 16 17 14 18
4 19 20 18 21
4 20 22 21 23
4 24 25 26 23
4 25 27 26 23
4 26 28 29 30
4 28 29 31 32
4 33 34 32 31
4 31 33 35 32
4 31 33 36 35
4 33 37 36 35
4 38 39 40 31
4 41 42 43 38
4 44 42 45 38
4 44 42 38 43
4 46 38 42 41
4 46 47 40 48
4 49 50 51 52
4 53 54 51 55
4 56 54 55 57
4 56 58 59 57
4 60 59 61 62
4 63 61 64 65
4 66 67 68 69
4 67 70 71 72
4 73 74 75 76
4 74 77 75 76
4 77 78 79 80
4 79 81 75 80
4 77 78 80 82
4 77 83 76 84
4 83 85 76 84
4 85 86 74 84
4 74 86 87 84
4 88 89 86 90
4 91 89 88 90
4 86 88 90 92
4 90 86 92 74
4 86 89 74 90
4 93 94 95 74
4 70 74 72 93
4 70 73 71 72
4 74 96 73 72
4 66 97 93 72
4 96 97 72 93
4 96 98 97 93
4 85 96 74 99
4 96 98 93 99
4 98 89 100 93
4 101 102 100 103
4 104 105 101 106
4 107 58 57 60
4 58 107 57 56
4 53 108 109 55
4 56 110 109 54
4 53 111 109 108
4 112 53 109 52
4 111 112 113 53
4 112 111 113 114
4 115 116 114 117
4 40 28 115 117
4 45 117 118 28
4 119 28 25 44
4 120 44 121 122
4 123 121 124 125
4 125 123 126 124
4 127 128 21 124
4 16 129 128 21
4 16 18 14 130
4 16 17 18 19
4 131 17 132 18
4 16 19 18 21
4 133 16 19 134
4 135 134 133 136
4 135 137 136 138
4 137 134 139 140
4 141 142 143 144
4 145 146 147 7
4 142 148 147 146
4 7 146 147 149
4 10 7 9 146
4 145 150 7 151
4 152 151 150 153
4 16 128 154 124
4 124 21 121 133
4 25 28 30 44
4 28 38 45 40
4 45 47 40 42
4 155 45 156 47
4 157 156 47 155
4 155 45 40 117
4 45 42 158 159
4 44 42 43 158
4 119 45 158 159
4 120 44 158 119
4 25 127 21 121
4 25 27 160 30
4 127 25 160 30
4 25 127 121 30
4 44 25 121 30
4 28 30 44 29
4 119 28 44 45
4 119 28 118 25
4 28 24 26 161
4 26 32 29 28
4 28 31 29 38
4 46 38 41 39
4 46 38 39 40
4 28 117 40 45
4 118 28 117 161
4 162 24 118 161
4 118 119 163 164
4 136 119 164 163
4 25 133 21 163
4 128 16 21 124
4 165 166 153 154
4 166 167 168 169
4 167 168 169 170
4 171 168 172 166
4 124 173 126 154
4 123 121 133 124
4 120 125 122 121
4 122 158 44 43
4 47 46 40 42
4 52 50 174 48
4 175 50 174 54
4 176 175 177 178
4 179 60 180 181
4 64 69 63 65
4 68 72 67 66
4 70 73 182 71
4 74 79 183 75
4 184 78 185 79
4 79 184 186 187
4 186 184 188 187
4 184 189 190 191
4 184 78 79 186
4 78 189 184 191
4 189 184 190 188
4 184 78 191 192
4 184 78 192 185
4 192 78 80 185
4 193 80 194 185
4 195 81 196 194
4 81 79 196 194
4 197 187 196 198
4 187 79 185 196
4 79 184 187 185
4 197 199 187 198
4 199 197 187 200
4 199 200 187 186
4 78 201 79 186
4 189 201 87 78
4 202 201 79 74
4 201 74 92 87
4 201 202 92 74
4 201 202 79 186
4 202 203 74 79
4 202 198 203 79
4 204 202 199 203
4 202 203 205 74
4 202 204 205 203
4 182 203 74 205
4 74 203 183 79
4 79 203 183 198
4 79 81 198 183
4 81 79 198 196
4 187 79 196 198
4 202 198 79 186
4 202 204 94 205
4 94 95 205 206
4 207 208 209 210
4 208 207 211 210
4 104 103 211 65
4 104 60 212 213
4 214 215 216 217
4 218 219 220 221
4 222 174 220 221
4 46 39 222 174
4 52 46 40 48
4 40 49 52 48
4 53 49 52 113
4 40 49 155 113
4 155 45 47 40
4 157 47 223 155
4 49 223 224 48
4 52 50 51 54
4 175 54 57 178
4 218 175 54 57
4 225 219 54 57
4 218 175 57 177
4 57 217 219 218
4 219 225 226 57
4 225 227 226 57
4 59 110 57 227
4 59 60 61 228
4 61 60 213 228
4 64 61 213 228
4 63 61 213 64
4 61 104 211 65
4 180 60 104 62
4 58 229 62 180
4 58 60 180 62
4 60 61 104 62
4 60 226 230 212
4 226 60 213 212
4 60 104 212 230
4 179 60 230 104
4 104 211 231 62
4 180 229 62 232
4 180 232 62 231
4 179 60 104 180
4 233 181 105 179
4 181 105 179 230
4 105 214 106 230
4 105 214 230 177
4 215 214 218 217
4 215 217 218 219
4 218 215 219 221
4 218 175 174 54
4 39 52 220 174
4 39 46 52 174
4 115 52 112 35
4 28 115 117 161
4 162 118 116 161
4 24 162 118 163
4 20 19 234 163
4 25 133 163 119
4 120 119 158 235
4 236 119 235 159
4 235 119 158 159
4 119 235 133 136
4 138 235 236 164
4 45 47 42 159
4 46 38 40 42
4 49 50 52 48
4 237 175 176 178
4 181 233 177 176
4 180 179 231 104
4 207 103 65 211
4 207 103 68 65
4 65 66 103 68
4 103 66 97 93
4 66 103 97 63
4 213 104 63 238
4 238 97 103 63
4 104 102 103 238
4 104 106 212 230
4 214 212 106 230
4 214 212 216 106
4 214 212 217 216
4 214 212 230 217
4 226 217 230 212
4 226 60 230 57
4 181 60 57 230
4 179 105 104 230
4 179 105 101 104
4 104 239 103 101
4 239 101 240 100
4 91 241 240 100
4 241 239 240 100
4 239 241 103 100
4 103 210 93 241
4 103 207 93 210
4 210 103 231 239
4 103 239 104 231
4 103 104 63 65
4 65 66 63 103
4 65 66 68 69
4 68 72 66 93
4 96 98 242 97
4 85 96 99 243
4 85 86 99 74
4 86 89 99 74
4 88 86 244 92
4 74 86 92 87
4 201 244 87 92
4 244 86 87 92
4 90 74 92 94
4 94 95 206 245
4 95 209 206 245
4 245 207 95 209
4 208 232 231 211
4 180 104 231 62
4 181 60 107 57
4 54 175 51 178
4 50 52 174 54
4 246 36 52 247
4 246 36 37 35
4 52 31 36 35
4 31 39 52 36
4 39 46 222 41
4 39 222 174 220
4 174 218 220 221
4 218 219 54 220
4 225 219 220 54
4 56 110 54 57
4 110 56 59 57
4 60 59 226 228
4 60 226 213 228
4 57 217 230 226
4 214 217 230 218
4 218 57 230 177
4 181 105 230 177
4 179 60 181 230
4 58 107 180 60
4 229 107 58 248
4 229 107 180 58
4 60 58 59 62
4 58 107 56 248
4 108 56 109 55
4 108 56 55 248
4 107 56 55 57
4 107 181 57 178
4 57 181 177 178
4 181 176 177 178
4 233 181 177 105
4 249 239 101 240
4 91 89 241 100
4 89 91 241 90
4 210 245 93 241
4 245 241 90 93
4 93 94 90 245
4 74 202 92 94
4 205 204 94 206
4 202 198 199 203
4 202 198 186 199
4 199 197 200 250
4 199 186 187 198
4 200 186 188 187
4 184 189 186 188
4 201 189 87 244
4 189 201 78 186
4 201 78 79 87
4 189 78 184 186
4 186 79 187 198
4 74 201 79 87
4 74 79 84 87
4 79 78 84 87
4 77 78 84 79
4 74 77 84 79
4 74 85 84 76
4 83 243 76 85
4 85 96 243 76
4 73 96 74 76
4 96 93 74 99
4 89 93 99 74
4 93 94 74 90
4 93 94 245 95
4 207 95 68 93
4 95 70 68 93
4 95 70 74 205
4 74 70 182 205
4 94 95 74 205
4 241 89 90 93
4 104 179 231 239
4 181 60 180 107
4 107 57 55 178
4 57 54 55 178
4 53 49 51 52
4 40 49 113 52
4 155 47 223 48
4 45 47 159 156
4 119 156 45 159
4 120 44 119 121
4 16 173 124 154
4 166 167 169 145
4 145 7 147 251
4 9 7 252 149
4 253 254 252 255
4 256 253 255 254
4 6 9 252 255
4 253 257 149 252
4 7 258 259 260
4 260 261 251 170
4 169 260 251 170
4 169 251 167 170
4 166 167 145 171
4 16 22 18 130
4 25 24 20 23
4 24 25 118 28
4 119 156 118 45
4 119 28 45 118
4 119 45 44 158
4 44 38 28 29
4 25 28 26 30
4 25 24 26 28
4 24 20 234 163
4 162 24 234 163
4 163 119 118 25
4 235 135 133 136
4 135 134 140 133
4 145 141 153 144
4 145 260 169 151
4 0 258 4 5
4 259 258 262 263
4 264 259 262 263
4 258 7 262 0
4 260 258 259 261
4 258 261 263 259
4 261 258 263 265
4 261 260 251 259
4 167 251 169 145
4 145 260 251 169
4 166 167 171 168
4 16 171 153 140
4 137 135 136 134
4 138 135 235 136
4 235 138 136 164
4 236 119 156 164
4 157 156 159 47
4 155 47 48 40
4 40 49 48 155
4 46 52 174 48
4 247 225 220 54
4 110 225 57 227
4 60 59 57 226
4 104 61 211 62
4 232 211 62 231
4 103 104 211 231
4 239 210 103 241
4 241 93 103 100
4 68 72 93 70
4 103 207 68 93
4 207 103 211 210
4 210 208 231 211
4 103 210 231 211
4 245 207 210 93
4 245 207 209 210
4 245 207 93 95
4 70 95 74 93
4 70 73 74 182
4 182 203 183 74
4 202 74 205 94
4 93 89 90 74
4 89 241 100 93
4 93 98 103 100
4 101 104 102 103
4 104 101 102 106
4 106 238 104 212
4 266 216 212 106
4 106 238 212 266
4 106 238 102 104
4 267 266 238 102
4 97 102 267 238
4 106 238 266 102
4 97 102 238 103
4 97 102 103 98
4 97 102 98 267
4 97 98 242 267
4 96 98 99 242
4 89 98 99 93
4 239 101 100 103
4 104 179 239 101
4 179 249 239 101
4 105 179 101 249
4 233 105 249 179
4 177 181 57 230
4 175 57 177 178
4 175 237 51 178
4 55 54 51 178
4 112 111 109 53
4 112 53 52 113
4 117 115 113 114
4 116 118 117 161
4 115 116 117 161
4 28 115 161 32
4 29 32 26 34
4 26 30 29 27
4 34 26 29 27
4 29 34 31 32
4 31 115 32 35
4 31 115 28 32
4 246 112 52 35
4 246 247 52 54
4 247 110 225 54
4 59 227 57 226
4 213 104 238 212
4 104 103 63 238
4 97 98 103 93
4 70 73 72 74
4 71 182 268 73
4 182 75 268 73
4 182 75 183 268
4 183 81 268 75
4 182 75 74 183
4 79 81 183 75
4 79 81 80 194
4 78 192 80 82
4 192 193 80 82
4 269 193 192 82
4 193 192 80 185
4 80 79 194 185
4 77 74 75 79
4 85 96 76 74
4 96 243 242 99
4 98 102 103 100
4 104 105 106 230
4 214 218 230 177
4 50 175 51 54
4 49 155 223 48
4 157 156 236 159
4 236 119 159 156
4 235 119 164 136
4 236 119 164 235
4 133 235 120 123
4 120 235 133 119
4 135 123 235 133
4 124 173 123 126
4 173 172 126 154
4 166 171 154 172
4 172 171 154 173
4 171 16 154 173
4 171 166 154 153
4 16 171 154 153
4 124 173 16 133
4 124 173 133 123
4 25 133 119 121
4 19 16 133 21
4 163 19 133 21
4 134 19 133 136
4 133 119 136 163
4 133 19 163 136
4 132 20 18 19
4 20 132 234 19
4 20 19 163 21
4 22 20 21 18
4 16 22 21 18
4 128 129 127 21
4 160 129 21 127
4 160 21 25 127
4 25 20 21 23
4 25 27 23 160
4 25 27 30 26
4 23 22 21 160
4 16 129 21 22
4 128 130 165 270
4 128 130 270 129
4 128 130 16 165
4 16 165 153 154
4 17 16 14 153
4 131 17 18 14
4 17 141 153 15
4 12 10 15 153
4 15 17 14 153
4 153 16 14 130
4 16 129 22 130
4 128 130 129 16
4 16 128 165 154
4 151 166 153 165
4 260 145 7 151
4 9 6 252 7
4 7 262 252 149
4 260 259 7 251
4 7 259 147 251
4 264 259 271 149
4 259 7 147 149
4 146 148 147 149
4 271 259 147 149
4 148 271 147 149
4 146 142 143 141
4 144 141 140 139
4 141 134 140 139
4 143 141 144 139
4 142 145 141 146
4 145 142 141 144
4 148 142 143 146
4 145 7 10 146
4 145 150 151 153
4 151 272 150 7
4 151 272 273 150
4 151 272 4 273
4 4 272 2 273
4 151 272 7 4
4 4 260 7 151
4 166 145 151 153
4 166 145 169 151
4 171 166 153 145
4 133 16 140 173
4 124 16 21 133
4 25 21 160 23
4 21 129 160 22
4 121 21 124 127
4 121 120 133 119
4 123 121 125 120
4 123 121 120 133
4 25 133 121 21
4 25 20 163 21
4 118 24 28 161
4 26 28 161 32
4 40 115 28 31
4 115 52 113 112
4 246 112 109 52
4 246 52 109 54
4 56 54 109 55
4 56 107 55 248
4 58 60 59 57
4 63 61 65 104
4 68 72 70 67
4 182 75 73 74
4 77 79 75 80
4 196 79 185 194
4 79 78 185 80
4 77 78 82 84
4 83 77 82 84
4 77 74 84 76
4 96 74 93 72
4 103 66 93 68
4 65 66 69 63
4 63 61 104 213
4 61 60 104 213
4 59 227 226 228
4 274 110 227 225
4 246 36 247 37
4 246 36 35 52
4 52 115 40 31
4 28 31 38 40
4 44 42 158 45
4 120 44 122 158
4 135 133 140 173
4 171 16 173 140
4 171 144 153 140
4 141 144 140 153
4 10 141 15 153
4 10 12 15 13
4 10 8 12 13
4 8 10 12 11
4 8 9 11 255
4 9 253 149 252
4 257 262 149 252
4 262 259 149 7
4 258 7 4 260
4 259 258 7 262
4 262 0 7 252
4 0 6 7 252
4 254 6 252 255
4 0 3 6 252
4 6 3 254 252
4 272 6 11 7
4 4 6 272 7
4 4 6 2 272
4 9 6 11 255
4 9 253 252 255
4 262 264 257 149
4 257 264 275 271
4 259 264 262 149
4 257 264 271 149
4 9 146 7 149
4 10 7 11 9
4 7 12 10 11
4 145 150 153 12
4 12 145 10 153
4 145 146 10 141
4 145 142 147 146
4 171 145 153 144
4 171 142 145 144
4 142 171 145 167
4 142 145 147 167
4 167 145 147 251
4 145 260 7 251
4 145 150 12 7
4 12 145 7 10
4 12 152 153 14
4 152 153 14 130
4 152 151 153 165
4 165 152 276 270
4 152 151 165 276
4 165 152 270 130
4 152 151 276 150
4 276 150 151 273
4 272 7 11 150
4 7 12 11 150
4 153 150 152 12
4 165 16 153 130
4 165 152 130 153
4 15 12 153 14
4 13 131 14 15
4 17 131 15 14
4 17 132 18 19
4 25 24 163 20
4 25 24 118 163
4 119 156 164 118
4 118 117 45 156
4 155 45 117 156
4 113 40 117 155
4 50 49 224 48
4 49 50 224 51
4 50 237 224 51
4 237 50 175 51
4 52 54 220 174
4 52 247 220 54
4 39 247 220 52
4 39 247 52 36
4 115 52 35 31
4 40 115 52 113
4 40 115 113 117
4 115 112 113 114
4 53 52 51 54
4 54 53 109 55
4 52 53 109 54
4 110 246 109 54
4 247 110 54 246
4 247 110 274 225
4 246 274 37 247
4 247 110 246 274
4 110 225 54 57
4 57 217 226 219
4 57 217 218 230
4 219 218 54 57
4 218 54 174 220
4 46 39 52 40
4 39 31 52 40
4 38 42 45 40
4 28 38 44 45
4 121 25 44 119
4 123 135 173 133
4 134 153 140 16
4 134 16 140 133
4 137 135 134 140
4 134 153 141 140
4 134 153 16 17
4 16 17 19 134
4 134 153 17 141
4 153 145 10 141
4 6 9 11 7
4 258 7 0 4
4 1 0 2 5

CELL_TYPES 734
10
10
10
10
10
10
10
10
10
10
10
10
10
10
10
10
10
10
10
10
10
10
10
10
10
10
10
10
10
10
10
10
10
10
10
10
10
10
10
10
10
10
10
10
10
10
10
10
10
10
10
10
10
10
10
10
10
10
10
10
10
10
10
10
10
10
10
10
10
10
10
10
10
10
10
10
10
10
10
10
10
10
10
10
10
10
10
10
10
10
10
10
10
10
10
10
10
10
10
10
10
10
10
10
10
10
10
10
10
10
10
10
10
10
10
10
10
10
10
10
10
10
10
10
10
10
10
10
10
10
10
10
10
10
10
10
10
10
10
10
10
10
10
10
10
10
10
10
10
10
10
10
10
10
10
10
10
10
10
10
10
10
10
10
10
10
10
10
10
10
10
10
10
10
10
10
10
10
10
10
10
10
10
10
10
10
10
10
10
10
10
10
10
10
10
10
10
10
10
10
10
10
10
10
10
10
10
10
10
10
10
10
10
10
10
10
10
10
10
10
10
10
10
10
10
10
10
10
10
10
10
10
10
10
10
10
10
10
10
10
10
10
10
10
10
10
10
10
10
10
10
10
10
10
10
10
10
10
10
10
10
10
10
10
10
10
10
10
10
10
10
10
10
10
10
10
10
10
10
10
10
10
10
10
10
10
10
10
10
10
10
10
10
10
10
10
10
10
10
10
10
10
10
10
10
10
10
10
10
10
10
10
10
10
10
10
10
10
10
10
10
10
10
10
10
10
10
10
10
10
10
10
10
10
10
10
10
10
10
10
10
10
10
10
10
10
10
10
10
10
10
10
10
10
10
10
10
10
10
10
10
10
10
10
10
10
10
10
10
10
10
10
10
10
10
10
10
10
10
10
10
10
10
10
10
10
10
10
10
10
10
10
10
10
10
10
10
10
10
10
10
10
10
10
10
10
10
10
10
10
10
10
10
10
10
10
10
10
10
10
10
10
10
10
10
10
10
10
10
10
10
10
10
10
10
10
10
10
10
10
10
10
10
10
10
10
10
10
10
10
10
10
10
10
10
10
10
10
10
10
10
10
10
10
10
10
10
10
10
10
10
10
10
10
10
10
10
10
10
10
10
10
10
10
10
10
10
10
10
10
10
10
10
10
10
10
10
10
10
10
10
10
10
10
10
10
10
10
10
10
10
10
10
10
10
10
10
10
10
10
10
10
10
10
10
10
10
10
10
10
10
10
10
10
10
10
10
10
10
10
10
10
10
10
10
10
10
10
10
10
10
10
10
10
10
10
10
10
10
10
10
10
10
10
10
10
10
10
10
10
10
10
10
10
10
10
10
10
10
10
10
10
10
10
10
10
10
10
10
10
10
10
10
10
10
10
10
10
10
10
10
10
10
10
10
10
10
10
10
10
10
10
10
10
10
10
10
10
10
10
10
10
10
10
10
10
10
10
10
10
10
10
10
10
10
10
10
10
10
10
10
10
10
10
10
10
10
10
10
10
10
10
10
10
10
10
10
10
10
10
10
10
10
10
10
10
10
10
10
10
10
10
10
10
10
10
10
10
10
10
10
10
10
10
10
10
10
10
10
10
10
10
10
10
10
10
10
10
10
10
10
10
10
10
10
10
10
10
10
10
10
10
10
10
10
10
10
10
10
10
10
10
10
10
10
10
10
10
10
10
10
10
10
10

CELL_DATA 734
SCALARS potentialEnergy FLOAT 1
LOOKUP_TABLE default
57.494633
52.537704
61.556957
79.883606
81.213379
33.330511
19.379972
177.656418
301.309021
152.438751
117.025116
171.812271
27.740839
45.250137
38.553337
51.301601
35.009714
73.639519
98.499413
64.780373
70.397022
38.259371
89.431755
120.612694
50.684116
91.603256
99.796768
61.443638
43.425041
48.814568
95.281921
28.679472
61.400318
72.115288
228.133072
391.192932
121.752045
33.314629
47.151703
51.422226
44.161076
88.524872
71.921875
155.440796
179.121384
202.587814
98.703560
133.602516
22.088583
80.779099
197.105972
237.133667
184.110306
81.713989
125.716125
83.487503
209.478851
85.498413
52.309052
67.203701
37.029514
103.211861
51.760967
79.807129
37.499262
69.395184
106.020470
58.991093
44.902470
88.872276
46.838081
40.358316
102.333000
80.763725
85.081200
74.614342
204.771759
89.254868
215.992142
120.313622
153.825119
144.695023
55.658527
70.918194
120.269508
131.770561
39.390429
120.756119
31.455124
173.425751
277.707703
332.197327
55.468342
21.453969
20.137794
50.342285
93.830078
27.433315
62.394230
74.523064
63.999447
182.951599
160.348785
116.099617
76.563988
73.982475
68.560463
101.978119
94.137344
91.765236
168.062485
106.853294
74.280914
32.851542
43.131229
62.208492
122.592468
85.497559
92.884041
83.544708
203.487869
243.823120
128.155403
62.801086
52.475868
52.266621
57.742065
164.714645
58.670559
86.400696
89.807564
90.856903
122.337463
42.541927
40.886118
66.487312
46.956062
51.701756
116.015739
140.779922
54.017586
36.924641
128.147919
171.904282
93.331970
46.888165
125.329025
42.450356
88.670212
59.710999
152.725601
250.807632
81.575356
102.487602
71.619106
58.075325
31.803473
48.830662
104.781303
93.590454
165.546844
147.305252
46.377113
81.945976
95.887527
256.917175
183.677795
167.359924
73.478683
79.360481
94.779869
170.279907
79.326935
222.254364
83.971245
52.123367
36.975275
80.873024
62.819351
42.744736
63.680382
47.592289
41.968494
89.497452
64.298325
40.827902
29.092514
27.017307
119.577812
37.933931
28.583763
44.155300
60.240608
41.642771
144.998016
171.075745
155.304703
121.583626
105.819511
224.190414
223.303116
136.929787
33.208971
33.802441
48.268974
64.729065
55.266834
86.078537
51.251827
44.918110
26.570704
53.897907
108.754555
49.599442
41.949181
71.698799
31.742294
67.506996
57.384842
31.294182
20.774664
33.858057
57.499966
84.084892
21.188208
94.783966
247.920074
119.450111
86.857002
122.797813
104.610588
25.277035
55.018166
101.061066
204.440948
103.886551
170.455872
229.655060
109.611496
153.216812
89.134293
167.761871
74.012794
54.696384
68.850235
93.312492
45.131165
61.440208
68.141499
155.745392
107.681458
55.151001
149.638672
59.647049
55.322773
53.590183
39.454861
28.941660
52.337326
78.830887
32.589638
43.239288
33.353300
150.286880
85.639961
107.476791
39.490757
70.119370
67.029232
53.221275
92.681938
59.901093
53.766335
86.313942
102.730659
83.700577
125.173691
69.596451
50.642445
66.948601
157.090668
14.556738
123.344902
22.222045
12.643672
133.858269
62.284580
60.166012
33.336296
185.040237
54.008404
35.519939
147.825912
64.895729
39.503544
25.015864
101.944298
149.232422
82.661942
50.923374
123.447487
254.725494
162.353302
131.915489
161.712585
25.711710
76.153236
54.307232
59.943375
55.026505
107.425987
33.881258
45.780582
49.411739
93.233269
103.030037
25.174527
63.871563
90.361191
82.634079
52.526001
61.724098
38.860151
25.032251
94.658836
35.978064
44.151569
72.042858
42.640678
56.884888
92.284668
27.936089
174.032913
160.473206
73.294827
86.959984
45.888508
49.816223
69.797638
99.445419
83.516632
101.623001
65.077469
97.636627
80.794502
195.428802
200.599106
116.786919
45.828720
84.236626
14.386411
48.445587
111.262680
99.008827
81.323463
65.692780
151.264130
101.620613
181.477737
99.054825
125.522194
76.912109
48.422054
107.367668
111.243011
88.996651
26.267900
47.148422
46.025940
80.289986
62.639374
108.164017
63.500103
62.647095
133.418915
65.083370
77.825592
67.104210
68.966629
34.708250
92.075363
38.815374
23.559410
32.178776
163.437592
125.461662
132.863823
128.410973
182.691193
129.530548
159.361740
202.183319
24.828221
39.087381
130.918594
87.758156
107.884323
188.733307
70.880409
89.278603
44.336994
52.183857
158.955063
112.575493
58.723793
80.779701
68.555969
70.673153
30.844164
80.282196
36.058733
97.834839
62.608032
54.573341
156.505386
64.711815
92.764618
75.838898
89.134979
48.480137
78.618301
166.578964
176.727448
26.598944
49.098141
31.617336
89.839485
37.060883
78.818558
108.119514
140.962051
72.418987
38.143538
85.839638
69.381664
122.618942
50.726627
93.701164
134.014488
81.576302
62.943943
142.037018
74.635612
98.471130
91.864822
88.495926
71.030880
45.947086
30.142776
114.176422
94.579742
50.796551
77.181366
103.053001
167.150909
93.780136
69.298115
50.184681
114.307869
362.697815
73.660366
66.669300
71.484997
135.666862
32.960629
64.994198
44.126247
80.122040
56.137276
92.356781
55.924057
31.055096
115.423111
58.794956
88.156540
117.710670
116.891434
35.929174
58.246002
64.035351
60.205814
72.936081
116.856583
177.368835
54.787518
112.072098
114.299423
60.731724
110.881241
42.705692
87.224556
173.272552
134.503159
199.450455
151.469482
163.812790
90.947044
70.704540
24.535948
91.102814
199.603333
21.596287
29.681192
116.024803
55.937969
59.592876
190.755219
65.335873
95.158783
157.721985
48.615654
84.727783
126.901825
154.744186
156.108307
105.521194
44.452282
101.994949
92.709976
104.077911
74.335983
134.204445
67.320637
92.809166
148.555725
178.894455
179.940247
174.465439
112.774529
226.884918
245.772781
283.732452
122.459816
132.693108
85.721954
90.366058
82.558731
63.252335
95.294289
97.636620
35.998398
129.561699
99.673828
77.168953
97.051636
151.476624
109.914589
205.347275
68.146389
67.591118
53.011921
165.650543
58.324398
106.082214
72.768250
192.107193
179.817520
62.677383
77.312233
129.294670
31.907738
27.624924
49.057907
52.384399
144.649887
26.629103
57.249165
77.804207
96.354126
107.825050
146.509415
268.473480
96.979599
77.014809
122.615768
35.376850
68.313095
80.380234
25.002133
50.821041
40.424562
36.131893
31.401352
52.922218
158.558624
107.053253
190.790268
120.190895
71.483810
112.010124
134.410431
134.642487
241.258286
150.098694
136.599060
245.093796
57.400093
92.431641
88.346909
81.235565
39.191351
123.291718
24.709720
30.172255
147.821274
36.773193
68.291603
201.414658
184.346252
149.690964
90.434937
58.806667
48.459164
186.016617
72.604565
41.489357
117.499786
100.776772
131.654243
53.160244
22.591788
59.434292
89.702957
52.737968
128.039413
122.066628
56.274075
70.957329
200.161118
158.295624
77.083542
43.308674
45.832375
76.419395
96.879021
50.695621
42.700420
82.197716
100.859802
60.667912
45.390678
55.616901
90.844627
102.638031
99.294395
47.678368
73.259678
51.790154
70.026901
63.026062
43.347908
109.618050
56.714664
46.662521
30.383434
113.649979
139.260849
34.612873
54.571453
111.884315
101.985390
112.690666
90.774788
96.189346
60.045834
50.547352
95.597305
21.265663
60.032276
55.924667
123.190300
124.534851
146.428833
67.243565
72.275078
66.391304
74.638466
33.244789
36.690357
155.764420
133.374779
137.281441
211.394928
90.797417
160.629333
174.182068
335.968750
77.815643
62.946774
26.347275
32.637617
56.834225
41.033707
137.584099
101.551605
76.813477
52.784878
53.642849
99.408539
59.439983
139.718170
61.954166
70.645679
62.771595
34.170053
56.920242
99.236359
101.081512
166.901047
97.041267
64.189686
109.424515
179.661133
71.376671
87.402267
253.100021
251.650467
30.473223
35.341373
28.749800
69.880516
116.047859
69.781906
131.637238
119.788277
58.445927
188.138687
70.978146
65.029324
93.489616
68.057400
105.208153
103.973969
47.312870

