# vtk DataFile Version 3.1
Tetrahedral Mesh Visualization
ASCII
DATASET UNSTRUCTURED_GRID

POINTS 277 FLOAT
0.000000 1.378113 1.754166
0.000000 0.000000 0.000000
2.001504 -0.001010 0.039646
0.000000 1.666667 0.000000
2.417678 0.000230 1.786551
0.000000 0.000000 1.666667
1.696316 2.463973 0.038192
2.998688 2.458742 2.388594
4.005005 4.986306 0.070660
3.078667 5.001941 1.707549
5.212585 4.994643 1.693991
3.489934 3.170548 0.069228
5.409051 3.292340 0.086672
6.006293 4.983299 0.086206
7.370888 3.308198 0.079678
6.975232 4.982927 1.406184
9.251414 2.164390 2.116741
8.701232 4.978181 1.682628
9.359949 3.297422 0.079515
10.668262 4.976911 1.732577
11.361015 3.295888 0.095943
11.114575 1.843768 1.656953
10.681969 1.632832 0.097597
12.689788 1.645153 0.110893
13.373070 3.306627 0.119835
12.981805 1.863402 1.607118
14.697094 1.644340 0.137818
14.018638 -0.015893 0.122780
15.482667 2.135082 1.835643
15.342597 -0.003763 1.797447
13.334284 -0.010467 1.777208
17.303196 -0.001882 1.798415
16.711061 1.652241 0.174161
18.050369 -0.009259 0.219274
16.037621 -0.014661 0.159046
18.727779 1.652883 0.233312
19.033068 0.004726 1.569028
20.062826 -0.009199 0.279160
16.718094 -0.006896 3.479699
18.980413 0.009211 3.356490
17.691793 2.684469 3.150529
17.942171 0.004148 5.219782
16.627075 1.658153 5.183745
15.948903 -0.006539 5.162074
14.669172 -0.002972 3.455131
15.757931 2.880264 3.511161
18.666622 1.709344 5.242898
17.257620 3.336081 5.199402
19.217972 3.404374 5.244468
19.300461 5.007629 3.565430
20.926008 3.694891 5.282882
21.298563 5.010167 3.615112
19.624012 2.494615 2.615436
20.673359 4.996545 1.931662
21.908073 2.517691 2.787491
22.678011 5.002476 1.992162
23.359213 3.385248 0.349848
23.967968 2.446678 2.667520
25.065136 3.666678 0.399615
25.073450 1.871673 0.407316
25.993519 2.500866 2.163077
27.344126 1.694265 0.486017
26.781488 3.387267 0.466959
29.291143 -0.004574 2.181402
28.080986 -0.005792 0.521882
29.390966 1.666869 0.564965
31.016254 -0.002923 1.942874
32.084621 -0.008951 0.662029
31.395769 1.655212 0.631863
30.076334 -0.005442 0.595670
33.363613 1.638076 0.708431
34.085144 -0.018089 0.742552
32.699005 -0.000500 2.299409
34.613815 -0.007327 2.441784
34.979576 2.402064 3.299322
36.513622 -0.015988 2.655443
35.091511 -0.001774 4.166352
36.770737 -0.000054 4.389425
38.177509 2.522790 5.887243
37.684715 2.156614 3.054405
38.280411 -0.007913 3.427656
38.074600 -0.017193 0.888902
37.883259 -0.000396 5.880848
35.888866 0.006668 5.815453
36.444736 1.756163 5.827282
34.824402 1.340928 5.766994
34.742847 3.142133 5.752405
36.645031 3.491560 5.823566
33.898930 5.016040 5.702035
32.592663 3.314671 5.667473
33.232380 5.003424 4.024188
31.900600 5.013707 5.633787
35.110703 5.002271 4.138759
32.189754 2.602407 3.091382
34.613934 4.985394 2.418272
32.719040 3.309780 0.671585
33.167488 0.005987 4.014224
30.948215 -0.003848 3.730759
31.209427 1.667236 5.621454
33.144501 1.615734 5.697160
30.562534 3.340945 5.598118
28.559561 3.344307 5.527925
29.227278 1.679801 5.556396
30.003460 2.500191 3.054319
27.944269 2.493802 2.983044
26.562574 3.350432 5.456406
27.227091 1.682520 5.486465
24.675215 4.997960 2.050995
22.064531 4.986396 0.308285
21.398628 3.331002 0.297507
22.807007 1.693808 0.344961
20.056576 4.968215 0.243052
19.393646 3.310982 0.248329
18.673574 4.995139 1.878632
18.056299 4.976267 0.190281
17.385746 3.316015 0.187338
16.048532 4.974238 0.159703
16.679304 4.989520 1.836451
14.681635 4.990398 1.800385
13.684094 2.960313 3.388656
12.965585 1.328247 5.110289
12.658037 -0.005370 3.439701
13.962881 0.006038 5.125311
11.253889 1.603839 5.099061
10.651020 -0.016749 3.429943
11.982004 -0.005797 5.108077
9.986098 -0.022677 5.094614
11.327595 -0.015089 1.764815
9.300760 -0.011682 1.760457
9.998278 -0.026021 0.094264
8.684484 1.638424 0.089674
8.011826 4.971328 0.073180
10.019024 4.955019 0.067680
11.211317 2.631155 3.380692
9.249218 4.976946 3.378470
10.718489 3.300877 5.097545
11.296293 4.988289 3.409667
9.979076 4.988871 5.081028
11.966679 5.005602 5.089792
7.997331 4.984700 5.087908
8.727644 3.367796 5.089797
6.967911 4.996740 3.201207
5.351707 3.367141 5.091447
5.995684 4.999358 5.081746
7.024032 3.672828 5.094020
5.138979 2.377039 3.231438
4.620054 5.001011 3.371839
3.479936 3.184652 5.070269
3.989361 4.994667 5.073663
2.369689 5.002171 3.327830
4.839063 1.596344 0.089846
4.895648 0.001099 1.973021
6.723464 1.642460 0.087956
7.010414 2.561687 2.283863
8.641994 -0.011993 3.424926
17.307404 4.997382 3.523270
15.318242 4.995661 3.482634
15.950985 4.998982 5.172652
14.669781 1.612417 5.140714
15.220250 3.304493 5.155067
12.010800 -0.018761 0.103870
15.376721 3.305964 0.145249
14.045103 4.969646 0.124274
12.670558 4.981958 1.762462
13.311596 4.996513 3.437953
7.227198 -0.004033 1.783616
6.659979 -0.003141 3.471251
4.899483 1.643204 5.088593
5.992247 -0.003077 5.092982
4.903973 -0.002184 3.753078
3.988697 -0.009133 5.078280
7.037057 1.877775 5.091503
7.990616 -0.013757 5.089750
9.261823 1.669069 5.090225
20.927891 1.905070 5.297834
22.630512 3.403738 5.335016
23.912802 5.018033 5.367185
24.577013 3.358614 5.392962
23.297220 5.004128 3.678164
27.286009 5.004715 3.808602
26.673527 5.004059 2.122072
25.290567 5.008014 3.738468
35.249840 1.591582 0.773033
36.919563 1.438872 0.844200
39.933804 3.244754 4.564768
39.971542 1.622814 3.537646
38.290115 4.995209 3.410385
40.000809 3.241648 2.836490
39.946796 4.998453 4.286584
37.889175 5.002574 5.867925
39.882511 4.986254 5.958524
39.880196 3.319677 5.946123
39.883213 1.659673 5.929716
39.941803 -0.016295 4.277126
40.007076 -0.008180 2.614798
40.072411 -0.017484 0.955696
40.068680 1.654438 0.934694
40.069481 3.330529 0.944281
38.384003 2.462170 0.888719
38.081623 5.008192 0.876422
40.023590 4.991436 2.623135
36.784817 5.005507 4.363264
36.526428 4.992885 2.626170
36.597042 3.167122 0.813490
36.085094 4.987989 0.789418
34.681309 3.285290 0.736995
34.081768 4.978455 0.706068
30.732958 3.320618 0.598608
30.077377 4.994218 0.577370
32.080135 4.977356 0.633468
30.667740 4.992046 2.258044
28.739147 3.343134 0.538676
26.684319 0.007849 3.856700
27.280979 0.001834 2.180523
25.228584 1.685969 5.417319
23.922787 0.014646 5.393671
25.910311 0.012139 5.452286
24.958885 0.006935 4.093556
23.185604 1.711240 5.361367
23.245609 0.012026 3.750061
21.240452 0.015496 3.614197
21.927792 0.016185 5.329894
19.935667 0.013472 5.269522
17.931519 5.005830 5.210389
19.927408 5.014570 5.248414
22.755552 -0.003207 2.038654
25.012955 -0.007418 2.302817
24.074100 -0.015396 0.387719
26.082603 -0.010925 0.452200
26.063993 4.988281 0.434517
25.657867 2.244493 3.910452
28.669830 5.005154 2.193148
28.069557 4.998974 0.506333
25.904951 5.019155 5.428252
12.030065 4.955679 0.087196
12.964261 3.122019 5.110643
13.962352 5.009317 5.121302
21.919439 5.015160 5.301810
28.692118 0.005404 3.856796
29.280291 5.001181 3.880369
29.895857 5.009379 5.571581
31.265532 5.005539 3.952135
31.895952 0.012288 5.651670
33.890209 0.005885 5.732210
35.888596 5.015258 5.776875
32.650421 4.986225 2.329411
20.749557 1.663366 0.287366
20.751175 0.004634 1.904860
24.068136 4.993511 0.365056
27.901230 5.012944 5.499899
40.075783 5.009285 0.966572
3.175072 1.456720 5.062118
0.000000 3.103853 1.750106
0.000000 5.000000 1.666667
0.000000 3.333333 0.000000
2.001824 4.994078 0.041521
0.000000 5.000000 0.000000
0.000000 5.000000 3.333333
0.000000 0.000000 3.333333
1.693529 2.466301 5.037626
3.029181 -0.006490 3.454132
1.992112 -0.016337 5.040326
0.000000 2.403264 3.370902
0.000000 1.666667 5.000000
0.000000 3.333333 5.000000
0.000000 0.000000 5.000000
27.899044 0.013431 5.519452
29.897610 0.011679 5.586911
36.086647 -0.016742 0.810997
39.881157 -0.009232 5.941522
7.989609 -0.021055 0.092114
1.994605 4.998775 5.043036
3.161968 1.446861 0.064327
3.999796 -0.011156 0.081929
22.072868 -0.003734 0.329901
0.000000 5.000000 5.000000
5.990936 -0.008134 0.091197

CELLS 734 3670
4 0 1 2 3
4 0 4 2 5
4 0 3 2 6
4 4 6 0 2
4 4 6 7 0
4 8 9 10 11
4 12 13 14 15
4 16 17 14 18
4 19 20 18 21
4 20 22 21 23
4 24 25 26 23
4 25 27 26 23
4 26 28 29 30
4 28 29 31 32
4 33 34 32 31
4 31 33 35 32
4 31 33 36 35
4 33 37 36 35
4 38 39 40 31
4 41 42 43 38
4 44 42 45 38
4 44 42 38 43
4 46 38 42 41
4 46 47 40 48
4 49 50 51 52
4 53 54 51 55
4 56 54 55 57
4 56 58 59 57
4 60 59 61 62
4 63 61 64 65
4 66 67 68 69
4 67 70 71 72
4 73 74 75 76
4 74 77 75 76
4 77 78 79 80
4 79 81 75 80
4 77 78 80 82
4 77 83 76 84
4 83 85 76 84
4 85 86 74 84
4 74 86 87 84
4 88 89 86 90
4 91 89 88 90
4 86 88 90 92
4 90 86 92 74
4 86 89 74 90
4 93 94 95 74
4 70 74 72 93
4 70 73 71 72
4 74 96 73 72
4 66 97 93 72
4 96 97 72 93
4 96 98 97 93
4 85 96 74 99
4 96 98 93 99
4 98 89 100 93
4 101 102 100 103
4 104 105 101 106
4 107 58 57 60
4 58 107 57 56
4 53 108 109 55
4 56 110 109 54
4 53 111 109 108
4 112 53 109 52
4 111 112 113 53
4 112 111 113 114
4 115 116 114 117
4 40 28 115 117
4 45 117 118 28
4 119 28 25 44
4 120 44 121 122
4 123 121 124 125
4 125 123 126 124
4 127 128 21 124
4 16 129 128 21
4 16 18 14 130
4 16 17 18 19
4 131 17 132 18
4 16 19 18 21
4 133 16 19 134
4 135 134 133 136
4 135 137 136 138
4 137 134 139 140
4 141 142 143 144
4 145 146 147 7
4 142 148 147 146
4 7 146 147 149
4 10 7 9 146
4 145 150 7 151
4 152 151 150 153
4 16 128 154 124
4 124 21 121 133
4 25 28 30 44
4 28 38 45 40
4 45 47 40 42
4 155 45 156 47
4 157 156 47 155
4 155 45 40 117
4 45 42 158 159
4 44 42 43 158
4 119 45 158 159
4 120 44 158 119
4 25 127 21 121
4 25 27 160 30
4 127 25 160 30
4 25 127 121 30
4 44 25 121 30
4 28 30 44 29
4 119 28 44 45
4 119 28 118 25
4 28 24 26 161
4 26 32 29 28
4 28 31 29 38
4 46 38 41 39
4 46 38 39 40
4 28 117 40 45
4 118 28 117 161
4 162 24 118 161
4 118 119 163 164
4 136 119 164 163
4 25 133 21 163
4 128 16 21 124
4 165 166 153 154
4 166 167 168 169
4 167 168 169 170
4 171 168 172 166
4 124 173 126 154
4 123 121 133 124
4 120 125 122 121
4 122 158 44 43
4 47 46 40 42
4 52 50 174 48
4 175 50 174 54
4 176 175 177 178
4 179 60 180 181
4 64 69 63 65
4 68 72 67 66
4 70 73 182 71
4 74 79 183 75
4 184 78 185 79
4 79 184 186 187
4 186 184 188 187
4 184 189 190 191
4 184 78 79 186
4 78 189 184 191
4 189 184 190 188
4 184 78 191 192
4 184 78 192 185
4 192 78 80 185
4 193 80 194 185
4 195 81 196 194
4 81 79 196 194
4 197 187 196 198
4 187 79 185 196
4 79 184 187 185
4 197 199 187 198
4 199 197 187 200
4 199 200 187 186
4 78 201 79 186
4 189 201 87 78
4 202 201 79 74
4 201 74 92 87
4 201 202 92 74
4 201 202 79 186
4 202 203 74 79
4 202 198 203 79
4 204 202 199 203
4 202 203 205 74
4 202 204 205 203
4 182 203 74 205
4 74 203 183 79
4 79 203 183 198
4 79 81 198 183
4 81 79 198 196
4 187 79 196 198
4 202 198 79 186
4 202 204 94 205
4 94 95 205 206
4 207 208 209 210
4 208 207 211 210
4 104 103 211 65
4 104 60 212 213
4 214 215 216 217
4 218 219 220 221
4 222 174 220 221
4 46 39 222 174
4 52 46 40 48
4 40 49 52 48
4 53 49 52 113
4 40 49 155 113
4 155 45 47 40
4 157 47 223 155
4 49 223 224 48
4 52 50 51 54
4 175 54 57 178
4 218 175 54 57
4 225 219 54 57
4 218 175 57 177
4 57 217 219 218
4 219 225 226 57
4 225 227 226 57
4 59 110 57 227
4 59 60 61 228
4 61 60 213 228
4 64 61 213 228
4 63 61 213 64
4 61 104 211 65
4 180 60 104 62
4 58 229 62 180
4 58 60 180 62
4 60 61 104 62
4 60 226 230 212
4 226 60 213 212
4 60 104 212 230
4 179 60 230 104
4 104 211 231 62
4 180 229 62 232
4 180 232 62 231
4 179 60 104 180
4 233 181 105 179
4 181 105 179 230
4 105 214 106 230
4 105 214 230 177
4 215 214 218 217
4 215 217 218 219
4 218 215 219 221
4 218 175 174 54
4 39 52 220 174
4 39 46 52 174
4 115 52 112 35
4 28 115 117 161
4 162 118 116 161
4 24 162 118 163
4 20 19 234 163
4 25 133 163 119
4 120 119 158 235
4 236 119 235 159
4 235 119 158 159
4 119 235 133 136
4 138 235 236 164
4 45 47 42 159
4 46 38 40 42
4 49 50 52 48
4 237 175 176 178
4 181 233 177 176
4 180 179 231 104
4 207 103 65 211
4 207 103 68 65
4 65 66 103 68
4 103 66 97 93
4 66 103 97 63
4 213 104 63 238
4 238 97 103 63
4 104 102 103 238
4 104 106 212 230
4 214 212 106 230
4 214 212 216 106
4 214 212 217 216
4 214 212 230 217
4 226 217 230 212
4 226 60 230 57
4 181 60 57 230
4 179 105 104 230
4 179 105 101 104
4 104 239 103 101
4 239 101 240 100
4 91 241 240 100
4 241 239 240 100
4 239 241 103 100
4 103 210 93 241
4 103 207 93 210
4 210 103 231 239
4 103 239 104 231
4 103 104 63 65
4 65 66 63 103
4 65 66 68 69
4 68 72 66 93
4 96 98 242 97
4 85 96 99 243
4 85 86 99 74
4 86 89 99 74
4 88 86 244 92
4 74 86 92 87
4 201 244 87 92
4 244 86 87 92
4 90 74 92 94
4 94 95 206 245
4 95 209 206 245
4 245 207 95 209
4 208 232 231 211
4 180 104 231 62
4 181 60 107 57
4 54 175 51 178
4 50 52 174 54
4 246 36 52 247
4 246 36 37 35
4 52 31 36 35
4 31 39 52 36
4 39 46 222 41
4 39 222 174 220
4 174 218 220 221
4 218 219 54 220
4 225 219 220 54
4 56 110 54 57
4 110 56 59 57
4 60 59 226 228
4 60 226 213 228
4 57 217 230 226
4 214 217 230 218
4 218 57 230 177
4 181 105 230 177
4 179 60 181 230
4 58 107 180 60
4 229 107 58 248
4 229 107 180 58
4 60 58 59 62
4 58 107 56 248
4 108 56 109 55
4 108 56 55 248
4 107 56 55 57
4 107 181 57 178
4 57 181 177 178
4 181 176 177 178
4 233 181 177 105
4 249 239 101 240
4 91 89 241 100
4 89 91 241 90
4 210 245 93 241
4 245 241 90 93
4 93 94 90 245
4 74 202 92 94
4 205 204 94 206
4 202 198 199 203
4 202 198 186 199
4 199 197 200 250
4 199 186 187 198
4 200 186 188 187
4 184 189 186 188
4 201 189 87 244
4 189 201 78 186
4 201 78 79 87
4 189 78 184 186
4 186 79 187 198
4 74 201 79 87
4 74 79 84 87
4 79 78 84 87
4 77 78 84 79
4 74 77 84 79
4 74 85 84 76
4 83 243 76 85
4 85 96 243 76
4 73 96 74 76
4 96 93 74 99
4 89 93 99 74
4 93 94 74 90
4 93 94 245 95
4 207 95 68 93
4 95 70 68 93
4 95 70 74 205
4 74 70 182 205
4 94 95 74 205
4 241 89 90 93
4 104 179 231 239
4 181 60 180 107
4 107 57 55 178
4 57 54 55 178
4 53 49 51 52
4 40 49 113 52
4 155 47 223 48
4 45 47 159 156
4 119 156 45 159
4 120 44 119 121
4 16 173 124 154
4 166 167 169 145
4 145 7 147 251
4 9 7 252 149
4 253 254 252 255
4 256 253 255 254
4 6 9 252 255
4 253 257 149 252
4 7 258 259 260
4 260 261 251 170
4 169 260 251 170
4 169 251 167 170
4 166 167 145 171
4 16 22 18 130
4 25 24 20 23
4 24 25 118 28
4 119 156 118 45
4 119 28 45 118
4 119 45 44 158
4 44 38 28 29
4 25 28 26 30
4 25 24 26 28
4 24 20 234 163
4 162 24 234 163
4 163 119 118 25
4 235 135 133 136
4 135 134 140 133
4 145 141 153 144
4 145 260 169 151
4 0 258 4 5
4 259 258 262 263
4 264 259 262 263
4 258 7 262 0
4 260 258 259 261
4 258 261 263 259
4 261 258 263 265
4 261 260 251 259
4 167 251 169 145
4 145 260 251 169
4 166 167 171 168
4 16 171 153 140
4 137 135 136 134
4 138 135 235 136
4 235 138 136 164
4 236 119 156 164
4 157 156 159 47
4 155 47 48 40
4 40 49 48 155
4 46 52 174 48
4 247 225 220 54
4 110 225 57 227
4 60 59 57 226
4 104 61 211 62
4 232 211 62 231
4 103 104 211 231
4 239 210 103 241
4 241 93 103 100
4 68 72 93 70
4 103 207 68 93
4 207 103 211 210
4 210 208 231 211
4 103 210 231 211
4 245 207 210 93
4 245 207 209 210
4 245 207 93 95
4 70 95 74 93
4 70 73 74 182
4 182 203 183 74
4 202 74 205 94
4 93 89 90 74
4 89 241 100 93
4 93 98 103 100
4 101 104 102 103
4 104 101 102 106
4 106 238 104 212
4 266 216 212 106
4 106 238 212 266
4 106 238 102 104
4 267 266 238 102
4 97 102 267 238
4 106 238 266 102
4 97 102 238 103
4 97 102 103 98
4 97 102 98 267
4 97 98 242 267
4 96 98 99 242
4 89 98 99 93
4 239 101 100 103
4 104 179 239 101
4 179 249 239 101
4 105 179 101 249
4 233 105 249 179
4 177 181 57 230
4 175 57 177 178
4 175 237 51 178
4 55 54 51 178
4 112 111 109 53
4 112 53 52 113
4 117 115 113 114
4 116 118 117 161
4 115 116 117 161
4 28 115 161 32
4 29 32 26 34
4 26 30 29 27
4 34 26 29 27
4 29 34 31 32
4 31 115 32 35
4 31 115 28 32
4 246 112 52 35
4 246 247 52 54
4 247 110 225 54
4 59 227 57 226
4 213 104 238 212
4 104 103 63 238
4 97 98 103 93
4 70 73 72 74
4 71 182 268 73
4 182 75 268 73
4 182 75 183 268
4 183 81 268 75
4 182 75 74 183
4 79 81 183 75
4 79 81 80 194
4 78 192 80 82
4 192 193 80 82
4 269 193 192 82
4 193 192 80 185
4 80 79 194 185
4 77 74 75 79
4 85 96 76 74
4 96 243 242 99
4 98 102 103 100
4 104 105 106 230
4 214 218 230 177
4 50 175 51 54
4 49 155 223 48
4 157 156 236 159
4 236 119 159 156
4 235 119 164 136
4 236 119 164 235
4 133 235 120 123
4 120 235 133 119
4 135 123 235 133
4 124 173 123 126
4 173 172 126 154
4 166 171 154 172
4 172 171 154 173
4 171 16 154 173
4 171 166 154 153
4 16 171 154 153
4 124 173 16 133
4 124 173 133 123
4 25 133 119 121
4 19 16 133 21
4 163 19 133 21
4 134 19 133 136
4 133 119 136 163
4 133 19 163 136
4 132 20 18 19
4 20 132 234 19
4 20 19 163 21
4 22 20 21 18
4 16 22 21 18
4 128 129 127 21
4 160 129 21 127
4 160 21 25 127
4 25 20 21 23
4 25 27 23 160
4 25 27 30 26
4 23 22 21 160
4 16 129 21 22
4 128 130 165 270
4 128 130 270 129
4 128 130 16 165
4 16 165 153 154
4 17 16 14 153
4 131 17 18 14
4 17 141 153 15
4 12 10 15 153
4 15 17 14 153
4 153 16 14 130
4 16 129 22 130
4 128 130 129 16
4 16 128 165 154
4 151 166 153 165
4 260 145 7 151
4 9 6 252 7
4 7 262 252 149
4 260 259 7 251
4 7 259 147 251
4 264 259 271 149
4 259 7 147 149
4 146 148 147 149
4 271 259 147 149
4 148 271 147 149
4 146 142 143 141
4 144 141 140 139
4 141 134 140 139
4 143 141 144 139
4 142 145 141 146
4 145 142 141 144
4 148 142 143 146
4 145 7 10 146
4 145 150 151 153
4 151 272 150 7
4 151 272 273 150
4 151 272 4 273
4 4 272 2 273
4 151 272 7 4
4 4 260 7 151
4 166 145 151 153
4 166 145 169 151
4 171 166 153 145
4 133 16 140 173
4 124 16 21 133
4 25 21 160 23
4 21 129 160 22
4 121 21 124 127
4 121 120 133 119
4 123 121 125 120
4 123 121 120 133
4 25 133 121 21
4 25 20 163 21
4 118 24 28 161
4 26 28 161 32
4 40 115 28 31
4 115 52 113 112
4 246 112 109 52
4 246 52 109 54
4 56 54 109 55
4 56 107 55 248
4 58 60 59 57
4 63 61 65 104
4 68 72 70 67
4 182 75 73 74
4 77 79 75 80
4 196 79 185 194
4 79 78 185 80
4 77 78 82 84
4 83 77 82 84
4 77 74 84 76
4 96 74 93 72
4 103 66 93 68
4 65 66 69 63
4 63 61 104 213
4 61 60 104 213
4 59 227 226 228
4 274 110 227 225
4 246 36 247 37
4 246 36 35 52
4 52 115 40 31
4 28 31 38 40
4 44 42 158 45
4 120 44 122 158
4 135 133 140 173
4 171 16 173 140
4 171 144 153 140
4 141 144 140 153
4 10 141 15 153
4 10 12 15 13
4 10 8 12 13
4 8 10 12 11
4 8 9 11 255
4 9 253 149 252
4 257 262 149 252
4 262 259 149 7
4 258 7 4 260
4 259 258 7 262
4 262 0 7 252
4 0 6 7 252
4 254 6 252 255
4 0 3 6 252
4 6 3 254 252
4 272 6 11 7
4 4 6 272 7
4 4 6 2 272
4 9 6 11 255
4 9 253 252 255
4 262 264 257 149
4 257 264 275 271
4 259 264 262 149
4 257 264 271 149
4 9 146 7 149
4 10 7 11 9
4 7 12 10 11
4 145 150 153 12
4 12 145 10 153
4 145 146 10 141
4 145 142 147 146
4 171 145 153 144
4 171 142 145 144
4 142 171 145 167
4 142 145 147 167
4 167 145 147 251
4 145 260 7 251
4 145 150 12 7
4 12 145 7 10
4 12 152 153 14
4 152 153 14 130
4 152 151 153 165
4 165 152 276 270
4 152 151 165 276
4 165 152 270 130
4 152 151 276 150
4 276 150 151 273
4 272 7 11 150
4 7 12 11 150
4 153 150 152 12
4 165 16 153 130
4 165 152 130 153
4 15 12 153 14
4 13 131 14 15
4 17 131 15 14
4 17 132 18 19
4 25 24 163 20
4 25 24 118 163
4 119 156 164 118
4 118 117 45 156
4 155 45 117 156
4 113 40 117 155
4 50 49 224 48
4 49 50 224 51
4 50 237 224 51
4 237 50 175 51
4 52 54 220 174
4 52 247 220 54
4 39 247 220 52
4 39 247 52 36
4 115 52 35 31
4 40 115 52 113
4 40 115 113 117
4 115 112 113 114
4 53 52 51 54
4 54 53 109 55
4 52 53 109 54
4 110 246 109 54
4 247 110 54 246
4 247 110 274 225
4 246 274 37 247
4 247 110 246 274
4 110 225 54 57
4 57 217 226 219
4 57 217 218 230
4 219 218 54 57
4 218 54 174 220
4 46 39 52 40
4 39 31 52 40
4 38 42 45 40
4 28 38 44 45
4 121 25 44 119
4 123 135 173 133
4 134 153 140 16
4 134 16 140 133
4 137 135 134 140
4 134 153 141 140
4 134 153 16 17
4 16 17 19 134
4 134 153 17 141
4 153 145 10 141
4 6 9 11 7
4 258 7 0 4
4 1 0 2 5

CELL_TYPES 734
10
10
10
10
10
10
10
10
10
10
10
10
10
10
10
10
10
10
10
10
10
10
10
10
10
10
10
10
10
10
10
10
10
10
10
10
10
10
10
10
10
10
10
10
10
10
10
10
10
10
10
10
10
10
10
10
10
10
10
10
10
10
10
10
10
10
10
10
10
10
10
10
10
10
10
10
10
10
10
10
10
10
10
10
10
10
10
10
10
10
10
10
10
10
10
10
10
10
10
10
10
10
10
10
10
10
10
10
10
10
10
10
10
10
10
10
10
10
10
10
10
10
10
10
10
10
10
10
10
10
10
10
10
10
10
10
10
10
10
10
10
10
10
10
10
10
10
10
10
10
10
10
10
10
10
10
10
10
10
10
10
10
10
10
10
10
10
10
10
10
10
10
10
10
10
10
10
10
10
10
10
10
10
10
10
10
10
10
10
10
10
10
10
10
10
10
10
10
10
10
10
10
10
10
10
10
10
10
10
10
10
10
10
10
10
10
10
10
10
10
10
10
10
10
10
10
10
10
10
10
10
10
10
10
10
10
10
10
10
10
10
10
10
10
10
10
10
10
10
10
10
10
10
10
10
10
10
10
10
10
10
10
10
10
10
10
10
10
10
10
10
10
10
10
10
10
10
10
10
10
10
10
10
10
10
10
10
10
10
10
10
10
10
10
10
10
10
10
10
10
10
10
10
10
10
10
10
10
10
10
10
10
10
10
10
10
10
10
10
10
10
10
10
10
10
10
10
10
10
10
10
10
10
10
10
10
10
10
10
10
10
10
10
10
10
10
10
10
10
10
10
10
10
10
10
10
10
10
10
10
10
10
10
10
10
10
10
10
10
10
10
10
10
10
10
10
10
10
10
10
10
10
10
10
10
10
10
10
10
10
10
10
10
10
10
10
10
10
10
10
10
10
10
10
10
10
10
10
10
10
10
10
10
10
10
10
10
10
10
10
10
10
10
10
10
10
10
10
10
10
10
10
10
10
10
10
10
10
10
10
10
10
10
10
10
10
10
10
10
10
10
10
10
10
10
10
10
10
10
10
10
10
10
10
10
10
10
10
10
10
10
10
10
10
10
10
10
10
10
10
10
10
10
10
10
10
10
10
10
10
10
10
10
10
10
10
10
10
10
10
10
10
10
10
10
10
10
10
10
10
10
10
10
10
10
10
10
10
10
10
10
10
10
10
10
10
10
10
10
10
10
10
10
10
10
10
10
10
10
10
10
10
10
10
10
10
10
10
10
10
10
10
10
10
10
10
10
10
10
10
10
10
10
10
10
10
10
10
10
10
10
10
10
10
10
10
10
10
10
10
10
10
10
10
10
10
10
10
10
10
10
10
10
10
10
10
10
10
10
10
10
10
10
10
10
10
10
10
10
10
10
10
10
10
10
10
10
10
10
10
10
10
10
10
10
10
10
10
10
10
10
10
10
10
10
10
10
10
10
10
10
10
10
10
10
10
10
10
10
10
10
10
10
10
10
10
10
10
10
10
10
10
10
10
10
10
10
10
10
10
10
10
10
10
10
10
10
10
10
10
10
10
10
10
10
10
10
10
10
10
10
10
10
10
10
10
10
10
10
10
10
10
10
10
10
10
10
10
10
10
10
10
10
10
10
10
10
10
10
10
10
10
10
10
10
10
10
10
10
10
10
10
10
10

CELL_DATA 734
SCALARS potentialEnergy FLOAT 1
LOOKUP_TABLE default
254.026993
252.058472
388.256744
419.376007
608.204834
174.338974
39.227613
152.623749
83.838661
189.092300
108.577324
132.705765
159.162308
111.230415
150.196365
213.651855
256.388916
233.274414
248.996872
116.921822
64.712021
99.060333
114.509644
153.653702
37.309074
52.353855
135.711060
101.932297
121.033203
31.594053
58.894947
31.680372
61.028816
72.967255
55.806423
64.065159
66.117622
38.728632
33.736614
63.903679
44.605255
35.283079
51.398926
109.059280
67.832657
105.113625
111.103638
151.940948
144.221436
42.985718
20.830839
41.744301
88.254242
60.220051
67.916061
67.360588
125.924644
55.687645
37.017193
80.589859
55.247402
40.553665
136.461197
167.705063
150.031525
51.379398
78.663155
92.503860
192.540405
182.422760
176.221024
50.590263
37.581272
81.980263
61.617718
64.097866
65.631886
91.460838
27.652092
188.512253
136.316376
130.092903
231.699493
53.986153
204.164474
42.650723
267.283020
224.208466
221.827530
92.381226
23.308727
299.466370
88.877327
146.294250
56.580090
147.798370
114.233612
71.657276
179.310287
129.022476
89.281601
222.656113
74.495224
124.765068
84.324577
69.388226
66.347668
96.333916
101.030525
106.422676
105.597351
259.932449
101.955086
131.937233
208.132568
106.669327
288.987030
110.691795
118.480171
47.539318
96.257088
35.785994
18.429168
31.376881
81.150856
55.535118
61.536526
102.180267
158.506805
158.916718
172.610107
90.415482
72.211040
71.822979
55.002186
34.294352
24.617194
60.653885
115.952507
97.138786
83.446953
92.387459
65.274506
76.512619
161.339539
96.516754
121.208427
138.773834
311.787201
135.942253
116.133217
173.792053
101.178192
105.570107
83.339844
140.863968
62.596848
105.598473
31.406658
42.483185
40.802761
37.666616
23.770767
26.275162
55.261715
99.342819
129.402901
65.377312
27.182425
24.924837
84.108376
124.399399
114.445335
357.741333
147.643829
125.123726
50.479168
32.478493
130.839981
104.258125
68.587688
40.064625
82.397499
50.325649
81.712151
47.759312
53.236183
57.268082
120.273872
85.210190
57.658016
274.002502
73.755058
163.123779
106.788788
73.621223
101.798119
92.377144
133.457565
43.865608
39.391417
120.840645
73.433247
57.996593
38.313530
31.618315
82.260315
86.917107
72.366787
255.293640
80.743057
33.515974
23.137983
69.869068
86.224876
75.118767
48.044121
16.221165
62.404591
59.201420
57.539742
94.197105
87.169952
77.442223
69.870399
50.736713
74.942223
57.163475
187.296661
116.220970
205.809540
149.117340
113.876884
230.990128
104.481453
178.503387
113.332840
120.130341
59.722553
47.325722
150.488327
222.260132
34.436340
41.510611
42.774200
35.398046
189.993637
187.881744
97.502998
64.887222
55.259274
81.157074
81.425232
22.249127
42.930828
139.093445
88.439697
47.964951
66.015690
80.965919
33.414038
48.294415
41.196684
95.295357
69.481586
39.157305
35.027311
21.413854
21.949307
35.345472
50.923828
122.793900
46.884354
73.980461
133.593628
46.327663
33.791306
49.508469
30.028427
63.023209
25.667597
60.601303
53.945740
95.276337
47.574905
114.730247
96.234467
55.332920
52.334305
98.972176
85.309044
62.106045
62.131905
103.846329
86.346298
91.086105
220.714172
195.080719
54.458481
28.361771
53.656509
69.193573
71.817364
144.978058
160.926727
49.851021
71.666828
29.841022
50.249844
64.175018
202.113953
56.559124
91.415443
65.988697
72.584286
107.072922
53.036720
39.047041
38.523108
31.971701
120.915359
77.317413
50.954571
124.415001
34.381374
30.824139
61.353970
51.210178
61.396141
64.221096
49.951584
74.475159
216.990128
233.347733
237.232788
202.269745
114.469193
133.040894
62.157227
33.464281
110.054657
129.375229
133.745430
54.104362
35.963657
29.461885
30.019667
32.843174
96.223854
20.573620
32.176769
47.215912
101.734085
99.423363
62.058769
125.344620
115.758301
78.554184
130.187866
74.782074
116.007820
96.390144
47.166882
72.775394
27.433344
55.801605
63.098812
46.832394
61.644657
113.786957
87.706383
71.320335
42.760677
59.885723
134.233887
552.699707
327.114960
276.987701
543.325806
312.206665
732.893372
330.478973
136.078316
84.867226
46.444881
94.894043
244.631088
152.678207
74.473747
113.744408
237.837265
140.978409
160.045746
134.992012
321.809784
266.721436
175.863831
265.480331
112.365524
62.938385
242.001175
283.014709
600.729675
416.796448
521.488220
647.419312
388.799805
632.486938
214.327606
136.552856
225.854385
47.472954
104.820496
78.434822
156.801910
55.332703
71.937294
119.213188
127.593918
204.655609
25.401515
63.198921
116.487755
83.117149
54.009804
29.034748
134.215614
42.151100
37.421150
60.191769
49.595379
203.645874
93.995018
148.681076
111.218193
50.960228
96.981987
111.123299
186.026154
85.499168
105.973503
67.199677
42.565353
56.549301
37.218269
39.043709
49.769108
68.109154
20.356898
16.749337
23.113877
28.831356
18.189207
68.847679
60.665287
44.367126
44.574432
39.611320
64.901230
63.847103
35.035814
25.637386
45.721146
36.250786
70.379948
196.515732
47.166691
72.071522
156.816360
45.396351
291.983917
128.075737
158.245667
146.154633
187.243958
240.950836
266.442200
105.201653
178.942078
82.053337
172.276505
119.992226
84.571228
78.193977
51.417507
19.655330
86.516731
77.440506
55.081783
62.128002
56.158371
76.010811
126.162849
76.417336
98.377083
247.054230
108.847397
43.591438
142.411652
76.047272
46.854584
60.232704
27.724001
91.294830
51.991623
57.154732
82.733749
63.815086
102.016289
54.428711
43.488388
47.956470
113.889122
169.809006
145.733963
70.625164
76.483238
54.292557
73.593426
71.626793
91.315331
84.172775
66.615742
253.784424
87.563736
39.501604
52.023540
184.937729
60.494156
89.456467
87.446388
141.315063
128.811203
122.085014
44.619827
117.993134
197.873535
87.638359
154.438385
134.015190
31.627666
197.620087
102.076988
64.567398
73.326210
74.962379
76.804588
112.512505
72.231308
147.440247
137.266769
174.765594
53.574348
112.888863
66.264935
40.343636
37.303658
374.090057
605.684875
659.197571
206.142822
237.825287
286.950012
640.099426
161.566437
201.722748
150.360809
82.870834
41.416351
92.882309
88.681114
126.173622
71.104649
102.695847
141.027618
51.800655
220.739395
86.326202
178.852341
229.120590
429.898499
318.519104
48.113335
48.293228
77.278351
60.651089
63.013214
104.127502
155.627228
147.103531
103.364326
108.479057
125.858986
115.590523
118.901047
188.819244
171.963745
150.998703
187.468979
136.670486
116.172462
98.419518
17.490455
64.808533
50.215290
35.418459
79.674301
74.518349
108.393639
139.993607
212.503143
68.290882
41.983265
58.614845
25.660530
49.052296
58.846695
47.754490
88.908997
159.764587
46.159107
223.707901
307.848938
104.845398
275.131439
174.847702
79.838181
123.082672
93.830986
184.585114
129.327278
55.073601
67.862129
55.132545
336.875397
450.608276
409.958954
655.406433
486.459625
609.551880
381.521027
435.779938
438.000977
386.000458
372.429230
208.115128
352.309387
197.399200
273.563477
392.728088
417.878387
419.461060
489.082886
228.260208
585.626709
135.183716
110.633247
37.266603
39.143862
116.260941
192.216522
70.278172
39.237589
51.922504
81.370827
81.232491
245.654892
158.402374
237.248245
114.525520
49.923824
92.577911
34.636345
71.619511
31.680643
65.119366
145.010757
160.656219
122.474892
53.527596
103.811523
81.478920
190.719788
95.962593
82.018745
113.702240
304.240570
171.606201
35.739246
123.060982
145.227081
69.752926
23.210634
25.968366
64.892918
50.338543
82.046249
74.486237
58.171188
54.123096
209.125549
89.837540
70.225201
234.062637
51.069893
50.474834
144.768555
54.818058
81.322693
34.425909
79.266388
41.451092
132.662170
89.128807
139.304245
122.149612
152.881348
130.534012
203.218384
111.145622
80.883224
112.378174
85.701317
277.769775
279.436493
73.575466
252.061478
240.680313
127.318344
242.309189
41.039640
318.835907
643.851013
201.713196

