# vtk DataFile Version 3.1
Tetrahedral Mesh Visualization
ASCII
DATASET UNSTRUCTURED_GRID

POINTS 277 FLOAT
0.000000 1.378113 1.754166
0.000000 0.000000 0.000000
1.999641 0.008828 -0.014344
0.000000 1.666667 0.000000
2.418604 0.007363 1.719687
0.000000 0.000000 1.666667
1.689372 2.478692 -0.008660
3.002104 2.463189 2.305143
3.994964 5.010676 -0.026640
3.081077 5.011037 1.625430
5.209420 5.016492 1.584857
3.481198 3.185885 -0.024477
5.391916 3.318146 -0.025323
5.987879 5.015121 -0.032194
7.345125 3.340259 -0.051306
6.967894 5.017349 1.279349
9.250979 2.178884 1.959424
8.693005 5.006426 1.542958
9.323980 3.331302 -0.073132
10.657065 4.998512 1.569920
11.314696 3.321360 -0.092355
11.098361 1.855833 1.466576
10.649098 1.653018 -0.085975
12.640911 1.652719 -0.103925
13.307509 3.321859 -0.114421
12.957097 1.868320 1.386317
14.632082 1.648444 -0.126983
13.965498 -0.022265 -0.109475
15.451797 2.138386 1.551415
15.316616 -0.007339 1.531319
13.321800 -0.009536 1.564504
17.272896 -0.004234 1.459967
16.631245 1.649877 -0.149766
17.970488 -0.012909 -0.149991
15.961982 -0.018989 -0.135056
18.642757 1.649636 -0.162204
18.988304 -0.006317 1.169291
19.971771 -0.026511 -0.153068
16.738581 0.003880 3.158992
19.002613 0.001703 2.959277
17.711102 2.683420 2.784813
18.017923 0.001858 4.847012
16.710634 1.669357 4.855591
16.026657 0.001787 4.868556
14.692243 0.002468 3.210803
15.786454 2.890342 3.211381
18.757788 1.701801 4.842838
17.349361 3.339812 4.841380
19.319576 3.389177 4.826218
19.346352 4.991377 3.157768
21.034620 3.670208 4.820919
21.345640 4.976376 3.141564
19.631039 2.481703 2.189889
20.661095 4.974426 1.477011
21.916636 2.476544 2.299204
22.655651 4.962604 1.460594
23.264935 3.339811 -0.195307
23.970505 2.401588 2.102566
24.964832 3.620913 -0.238721
24.964417 1.827647 -0.222133
25.965748 2.450598 1.476854
27.229073 1.633732 -0.275925
26.669138 3.327314 -0.284267
29.255573 -0.045814 1.315828
27.971182 -0.059734 -0.272261
29.280806 1.612937 -0.314979
30.969084 -0.030405 0.980641
31.981440 -0.032322 -0.349842
31.290588 1.626587 -0.349290
29.971519 -0.052226 -0.314224
33.261864 1.613246 -0.360221
33.988136 -0.035907 -0.352377
32.667568 -0.023385 1.260563
34.586800 -0.022155 1.335548
34.982906 2.389606 2.171612
36.500515 -0.022501 1.491493
35.136734 -0.001281 3.044541
36.833923 0.004143 3.213729
38.308193 2.531979 4.628820
37.685181 2.149666 1.825117
38.300114 -0.009477 2.184422
37.986721 -0.046945 -0.343816
38.011547 0.024231 4.664068
35.993275 0.014172 4.662401
36.566002 1.758184 4.649638
34.938553 1.352775 4.646767
34.858574 3.150890 4.628923
36.765087 3.486259 4.625297
34.004410 5.025764 4.595691
32.706619 3.317994 4.624350
33.271309 4.993603 2.947881
32.006054 5.015680 4.607768
35.155098 4.992075 2.996719
32.192642 2.588748 2.059787
34.587738 4.981329 1.297331
32.617821 3.289398 -0.374236
33.204174 -0.007250 2.959404
30.983259 -0.016897 2.768005
31.330168 1.663163 4.641098
33.257427 1.618912 4.632895
30.683426 3.332449 4.640058
28.687395 3.322228 4.666455
29.352364 1.657459 4.677949
30.004148 2.472532 2.129203
27.946363 2.455081 2.171277
26.696415 3.317585 4.717210
27.355312 1.645026 4.718982
24.648579 4.954226 1.427327
21.980614 4.956280 -0.204086
21.313581 3.301451 -0.180754
22.712440 1.647860 -0.172361
19.981115 4.968166 -0.182113
19.313522 3.308349 -0.166737
18.656603 4.981615 1.495189
17.975056 4.970767 -0.166692
17.304142 3.309631 -0.160148
15.969951 4.975662 -0.155594
16.653126 4.986434 1.504775
14.653633 4.998085 1.535635
13.707612 2.962345 3.153686
13.029221 1.324117 4.893043
12.678765 0.002478 3.231640
14.031353 0.003652 4.889216
11.308130 1.614775 4.908485
10.672444 -0.002079 3.249816
12.031281 0.003394 4.908307
10.030104 -0.007510 4.919726
11.316737 -0.012208 1.579960
9.297421 -0.006726 1.607416
9.971660 -0.012696 -0.070693
8.666679 1.664518 -0.062041
7.985531 5.008606 -0.063099
9.980796 4.997517 -0.081574
11.235347 2.643148 3.193936
9.269056 5.000484 3.227894
10.767843 3.307536 4.911888
11.324167 5.000445 3.236878
10.031275 5.002120 4.914144
12.030095 4.997568 4.902100
8.035128 4.990713 4.943234
8.771819 3.382149 4.928113
6.975506 5.009801 3.069217
5.376653 3.368219 4.966245
6.023052 4.990354 4.969381
7.058649 3.680424 4.949699
5.148220 2.384870 3.114258
4.624995 5.007626 3.269132
3.493634 3.194830 4.979761
4.009298 4.998342 4.981187
2.372067 5.004130 3.261056
4.831638 1.617239 -0.021254
4.907043 0.011133 1.855980
6.710851 1.663335 -0.046510
7.012312 2.577923 2.146019
8.660853 -0.002010 3.274478
17.343485 4.998070 3.166478
15.344849 5.001902 3.197204
16.038548 5.001249 4.859544
14.743239 1.616846 4.878274
15.302361 3.307091 4.870057
11.970508 -0.016932 -0.091041
15.301754 3.316292 -0.139539
13.970337 4.995705 -0.117231
12.655175 4.995080 1.561674
13.342295 4.999913 3.223226
7.234219 0.011537 1.647322
6.676428 0.012412 3.339703
4.925254 1.652540 4.968193
6.016350 0.007819 4.959913
4.917446 0.009747 3.634787
4.007944 0.004944 4.972226
7.078318 1.890409 4.950592
8.023377 -0.003245 4.940515
9.306931 1.681960 4.925427
21.027117 1.882599 4.838706
22.744806 3.371643 4.807338
24.041113 4.979902 4.769452
24.704323 3.322434 4.774722
23.343924 4.965628 3.118003
27.331839 4.976598 3.015859
26.641481 4.954185 1.366522
25.341692 4.966324 3.074884
35.150345 1.566191 -0.356097
36.831726 1.409810 -0.346556
40.005646 3.242423 3.232539
39.998455 1.617316 2.211653
38.302467 4.985768 2.136344
39.993614 3.232447 1.506324
40.004383 4.992680 2.932890
38.009064 5.009683 4.606158
40.010220 5.007930 4.598921
40.012810 3.341273 4.610146
40.013565 1.678100 4.615007
39.995213 -0.008079 2.967321
39.990021 -0.021360 1.297768
39.971737 -0.051796 -0.369491
39.978394 1.629513 -0.382922
39.993217 3.307114 -0.379556
38.295757 2.433705 -0.371046
37.986446 4.970063 -0.391254
39.991398 4.984400 1.271472
36.836914 4.990561 3.155425
36.505512 4.973071 1.429649
36.501011 3.134442 -0.372995
35.987934 4.946044 -0.394623
34.580772 3.261402 -0.372345
33.986889 4.961810 -0.392718
30.623936 3.288045 -0.355998
29.958300 4.947771 -0.365692
31.969894 4.958707 -0.383826
30.633234 4.970305 1.290558
28.626774 3.281933 -0.326822
26.732212 -0.043895 3.138484
27.251463 -0.053836 1.432145
25.348711 1.647866 4.767081
24.032400 -0.018842 4.825269
26.033575 -0.025031 4.770898
25.013002 -0.037470 3.474742
23.294748 1.678033 4.824807
23.281322 -0.029322 3.221178
21.266083 -0.014535 3.154688
22.018988 -0.007807 4.841677
20.013876 0.000503 4.848180
18.035204 5.002233 4.825993
20.037529 4.996433 4.819517
22.722353 -0.045168 1.531190
24.986423 -0.055167 1.686691
23.966417 -0.058410 -0.183171
25.963417 -0.063163 -0.221534
25.955763 4.942184 -0.280436
25.716311 2.196936 3.242998
28.639656 4.954676 1.326338
27.955887 4.939836 -0.322084
26.040833 4.983175 4.724783
11.978234 4.990855 -0.097287
13.030779 3.113745 4.890261
14.035756 4.997732 4.883793
22.039282 4.986682 4.796378
28.734522 -0.026549 3.021296
29.325762 4.982984 2.978721
30.017521 5.002901 4.639915
31.306606 4.989028 2.951184
32.016457 0.006333 4.651616
33.999706 0.014717 4.653715
36.004745 5.005334 4.609507
32.621986 4.976447 1.273653
20.659138 1.639181 -0.167167
20.714474 -0.022977 1.457273
23.971416 4.949108 -0.227033
28.029760 4.993653 4.664841
39.987099 4.974194 -0.396238
3.188789 1.471081 4.977222
0.000000 3.103853 1.750106
0.000000 5.000000 1.666667
0.000000 3.333333 0.000000
2.001537 5.013652 -0.012139
0.000000 5.000000 0.000000
0.000000 5.000000 3.333333
0.000000 0.000000 3.333333
1.701667 2.476007 4.988078
3.040170 0.008507 3.369915
2.000915 0.010948 4.988256
0.000000 2.403264 3.370902
0.000000 1.666667 5.000000
0.000000 3.333333 5.000000
0.000000 0.000000 5.000000
28.034485 -0.017431 4.727720
30.032778 -0.002665 4.680704
35.993923 -0.043628 -0.328520
40.003780 0.018968 4.643210
7.978150 0.004853 -0.055742
2.003024 5.005044 4.981456
3.156079 1.457467 -0.015740
3.998490 0.000169 -0.011289
21.973652 -0.040164 -0.161028
0.000000 5.000000 5.000000
5.985960 0.005843 -0.033406

CELLS 734 3670
4 0 1 2 3
4 0 4 2 5
4 0 3 2 6
4 4 6 0 2
4 4 6 7 0
4 8 9 10 11
4 12 13 14 15
4 16 17 14 18
4 19 20 18 21
4 20 22 21 23
4 24 25 26 23
4 25 27 26 23
4 26 28 29 30
4 28 29 31 32
4 33 34 32 31
4 31 33 35 32
4 31 33 36 35
4 33 37 36 35
4 38 39 40 31
4 41 42 43 38
4 44 42 45 38
4 44 42 38 43
4 46 38 42 41
4 46 47 40 48
4 49 50 51 52
4 53 54 51 55
4 56 54 55 57
4 56 58 59 57
4 60 59 61 62
4 63 61 64 65
4 66 67 68 69
4 67 70 71 72
4 73 74 75 76
4 74 77 75 76
4 77 78 79 80
4 79 81 75 80
4 77 78 80 82
4 77 83 76 84
4 83 85 76 84
4 85 86 74 84
4 74 86 87 84
4 88 89 86 90
4 91 89 88 90
4 86 88 90 92
4 90 86 92 74
4 86 89 74 90
4 93 94 95 74
4 70 74 72 93
4 70 73 71 72
4 74 96 73 72
4 66 97 93 72
4 96 97 72 93
4 96 98 97 93
4 85 96 74 99
4 96 98 93 99
4 98 89 100 93
4 101 102 100 103
4 104 105 101 106
4 107 58 57 60
4 58 107 57 56
4 53 108 109 55
4 56 110 109 54
4 53 111 109 108
4 112 53 109 52
4 111 112 113 53
4 112 111 113 114
4 115 116 114 117
4 40 28 115 117
4 45 117 118 28
4 119 28 25 44
4 120 44 121 122
4 123 121 124 125
4 125 123 126 124
4 127 128 21 124
4 16 129 128 21
4 16 18 14 130
4 16 17 18 19
4 131 17 132 18
4 16 19 18 21
4 133 16 19 134
4 135 134 133 136
4 135 137 136 138
4 137 134 139 140
4 141 142 143 144
4 145 146 147 7
4 142 148 147 146
4 7 146 147 149
4 10 7 9 146
4 145 150 7 151
4 152 151 150 153
4 16 128 154 124
4 124 21 121 133
4 25 28 30 44
4 28 38 45 40
4 45 47 40 42
4 155 45 156 47
4 157 156 47 155
4 155 45 40 117
4 45 42 158 159
4 44 42 43 158
4 119 45 158 159
4 120 44 158 119
4 25 127 21 121
4 25 27 160 30
4 127 25 160 30
4 25 127 121 30
4 44 25 121 30
4 28 30 44 29
4 119 28 44 45
4 119 28 118 25
4 28 24 26 161
4 26 32 29 28
4 28 31 29 38
4 46 38 41 39
4 46 38 39 40
4 28 117 40 45
4 118 28 117 161
4 162 24 118 161
4 118 119 163 164
4 136 119 164 163
4 25 133 21 163
4 128 16 21 124
4 165 166 153 154
4 166 167 168 169
4 167 168 169 170
4 171 168 172 166
4 124 173 126 154
4 123 121 133 124
4 120 125 122 121
4 122 158 44 43
4 47 46 40 42
4 52 50 174 48
4 175 50 174 54
4 176 175 177 178
4 179 60 180 181
4 64 69 63 65
4 68 72 67 66
4 70 73 182 71
4 74 79 183 75
4 184 78 185 79
4 79 184 186 187
4 186 184 188 187
4 184 189 190 191
4 184 78 79 186
4 78 189 184 191
4 189 184 190 188
4 184 78 191 192
4 184 78 192 185
4 192 78 80 185
4 193 80 194 185
4 195 81 196 194
4 81 79 196 194
4 197 187 196 198
4 187 79 185 196
4 79 184 187 185
4 197 199 187 198
4 199 197 187 200
4 199 200 187 186
4 78 201 79 186
4 189 201 87 78
4 202 201 79 74
4 201 74 92 87
4 201 202 92 74
4 201 202 79 186
4 202 203 74 79
4 202 198 203 79
4 204 202 199 203
4 202 203 205 74
4 202 204 205 203
4 182 203 74 205
4 74 203 183 79
4 79 203 183 198
4 79 81 198 183
4 81 79 198 196
4 187 79 196 198
4 202 198 79 186
4 202 204 94 205
4 94 95 205 206
4 207 208 209 210
4 208 207 211 210
4 104 103 211 65
4 104 60 212 213
4 214 215 216 217
4 218 219 220 221
4 222 174 220 221
4 46 39 222 174
4 52 46 40 48
4 40 49 52 48
4 53 49 52 113
4 40 49 155 113
4 155 45 47 40
4 157 47 223 155
4 49 223 224 48
4 52 50 51 54
4 175 54 57 178
4 218 175 54 57
4 225 219 54 57
4 218 175 57 177
4 57 217 219 218
4 219 225 226 57
4 225 227 226 57
4 59 110 57 227
4 59 60 61 228
4 61 60 213 228
4 64 61 213 228
4 63 61 213 64
4 61 104 211 65
4 180 60 104 62
4 58 229 62 180
4 58 60 180 62
4 60 61 104 62
4 60 226 230 212
4 226 60 213 212
4 60 104 212 230
4 179 60 230 104
4 104 211 231 62
4 180 229 62 232
4 180 232 62 231
4 179 60 104 180
4 233 181 105 179
4 181 105 179 230
4 105 214 106 230
4 105 214 230 177
4 215 214 218 217
4 215 217 218 219
4 218 215 219 221
4 218 175 174 54
4 39 52 220 174
4 39 46 52 174
4 115 52 112 35
4 28 115 117 161
4 162 118 116 161
4 24 162 118 163
4 20 19 234 163
4 25 133 163 119
4 120 119 158 235
4 236 119 235 159
4 235 119 158 159
4 119 235 133 136
4 138 235 236 164
4 45 47 42 159
4 46 38 40 42
4 49 50 52 48
4 237 175 176 178
4 181 233 177 176
4 180 179 231 104
4 207 103 65 211
4 207 103 68 65
4 65 66 103 68
4 103 66 97 93
4 66 103 97 63
4 213 104 63 238
4 238 97 103 63
4 104 102 103 238
4 104 106 212 230
4 214 212 106 230
4 214 212 216 106
4 214 212 217 216
4 214 212 230 217
4 226 217 230 212
4 226 60 230 57
4 181 60 57 230
4 179 105 104 230
4 179 105 101 104
4 104 239 103 101
4 239 101 240 100
4 91 241 240 100
4 241 239 240 100
4 239 241 103 100
4 103 210 93 241
4 103 207 93 210
4 210 103 231 239
4 103 239 104 231
4 103 104 63 65
4 65 66 63 103
4 65 66 68 69
4 68 72 66 93
4 96 98 242 97
4 85 96 99 243
4 85 86 99 74
4 86 89 99 74
4 88 86 244 92
4 74 86 92 87
4 201 244 87 92
4 244 86 87 92
4 90 74 92 94
4 94 95 206 245
4 95 209 206 245
4 245 207 95 209
4 208 232 231 211
4 180 104 231 62
4 181 60 107 57
4 54 175 51 178
4 50 52 174 54
4 246 36 52 247
4 246 36 37 35
4 52 31 36 35
4 31 39 52 36
4 39 46 222 41
4 39 222 174 220
4 174 218 220 221
4 218 219 54 220
4 225 219 220 54
4 56 110 54 57
4 110 56 59 57
4 60 59 226 228
4 60 226 213 228
4 57 217 230 226
4 214 217 230 218
4 218 57 230 177
4 181 105 230 177
4 179 60 181 230
4 58 107 180 60
4 229 107 58 248
4 229 107 180 58
4 60 58 59 62
4 58 107 56 248
4 108 56 109 55
4 108 56 55 248
4 107 56 55 57
4 107 181 57 178
4 57 181 177 178
4 181 176 177 178
4 233 181 177 105
4 249 239 101 240
4 91 89 241 100
4 89 91 241 90
4 210 245 93 241
4 245 241 90 93
4 93 94 90 245
4 74 202 92 94
4 205 204 94 206
4 202 198 199 203
4 202 198 186 199
4 199 197 200 250
4 199 186 187 198
4 200 186 188 187
4 184 189 186 188
4 201 189 87 244
4 189 201 78 186
4 201 78 79 87
4 189 78 184 186
4 186 79 187 198
4 74 201 79 87
4 74 79 84 87
4 79 78 84 87
4 77 78 84 79
4 74 77 84 79
4 74 85 84 76
4 83 243 76 85
4 85 96 243 76
4 73 96 74 76
4 96 93 74 99
4 89 93 99 74
4 93 94 74 90
4 93 94 245 95
4 207 95 68 93
4 95 70 68 93
4 95 70 74 205
4 74 70 182 205
4 94 95 74 205
4 241 89 90 93
4 104 179 231 239
4 181 60 180 107
4 107 57 55 178
4 57 54 55 178
4 53 49 51 52
4 40 49 113 52
4 155 47 223 48
4 45 47 159 156
4 119 156 45 159
4 120 44 119 121
4 16 173 124 154
4 166 167 169 145
4 145 7 147 251
4 9 7 252 149
4 253 254 252 255
4 256 253 255 254
4 6 9 252 255
4 253 257 149 252
4 7 258 259 260
4 260 261 251 170
4 169 260 251 170
4 169 251 167 170
4 166 167 145 171
4 16 22 18 130
4 25 24 20 23
4 24 25 118 28
4 119 156 118 45
4 119 28 45 118
4 119 45 44 158
4 44 38 28 29
4 25 28 26 30
4 25 24 26 28
4 24 20 234 163
4 162 24 234 163
4 163 119 118 25
4 235 135 133 136
4 135 134 140 133
4 145 141 153 144
4 145 260 169 151
4 0 258 4 5
4 259 258 262 263
4 264 259 262 263
4 258 7 262 0
4 260 258 259 261
4 258 261 263 259
4 261 258 263 265
4 261 260 251 259
4 167 251 169 145
4 145 260 251 169
4 166 167 171 168
4 16 171 153 140
4 137 135 136 134
4 138 135 235 136
4 235 138 136 164
4 236 119 156 164
4 157 156 159 47
4 155 47 48 40
4 40 49 48 155
4 46 52 174 48
4 247 225 220 54
4 110 225 57 227
4 60 59 57 226
4 104 61 211 62
4 232 211 62 231
4 103 104 211 231
4 239 210 103 241
4 241 93 103 100
4 68 72 93 70
4 103 207 68 93
4 207 103 211 210
4 210 208 231 211
4 103 210 231 211
4 245 207 210 93
4 245 207 209 210
4 245 207 93 95
4 70 95 74 93
4 70 73 74 182
4 182 203 183 74
4 202 74 205 94
4 93 89 90 74
4 89 241 100 93
4 93 98 103 100
4 101 104 102 103
4 104 101 102 106
4 106 238 104 212
4 266 216 212 106
4 106 238 212 266
4 106 238 102 104
4 267 266 238 102
4 97 102 267 238
4 106 238 266 102
4 97 102 238 103
4 97 102 103 98
4 97 102 98 267
4 97 98 242 267
4 96 98 99 242
4 89 98 99 93
4 239 101 100 103
4 104 179 239 101
4 179 249 239 101
4 105 179 101 249
4 233 105 249 179
4 177 181 57 230
4 175 57 177 178
4 175 237 51 178
4 55 54 51 178
4 112 111 109 53
4 112 53 52 113
4 117 115 113 114
4 116 118 117 161
4 115 116 117 161
4 28 115 161 32
4 29 32 26 34
4 26 30 29 27
4 34 26 29 27
4 29 34 31 32
4 31 115 32 35
4 31 115 28 32
4 246 112 52 35
4 246 247 52 54
4 247 110 225 54
4 59 227 57 226
4 213 104 238 212
4 104 103 63 238
4 97 98 103 93
4 70 73 72 74
4 71 182 268 73
4 182 75 268 73
4 182 75 183 268
4 183 81 268 75
4 182 75 74 183
4 79 81 183 75
4 79 81 80 194
4 78 192 80 82
4 192 193 80 82
4 269 193 192 82
4 193 192 80 185
4 80 79 194 185
4 77 74 75 79
4 85 96 76 74
4 96 243 242 99
4 98 102 103 100
4 104 105 106 230
4 214 218 230 177
4 50 175 51 54
4 49 155 223 48
4 157 156 236 159
4 236 119 159 156
4 235 119 164 136
4 236 119 164 235
4 133 235 120 123
4 120 235 133 119
4 135 123 235 133
4 124 173 123 126
4 173 172 126 154
4 166 171 154 172
4 172 171 154 173
4 171 16 154 173
4 171 166 154 153
4 16 171 154 153
4 124 173 16 133
4 124 173 133 123
4 25 133 119 121
4 19 16 133 21
4 163 19 133 21
4 134 19 133 136
4 133 119 136 163
4 133 19 163 136
4 132 20 18 19
4 20 132 234 19
4 20 19 163 21
4 22 20 21 18
4 16 22 21 18
4 128 129 127 21
4 160 129 21 127
4 160 21 25 127
4 25 20 21 23
4 25 27 23 160
4 25 27 30 26
4 23 22 21 160
4 16 129 21 22
4 128 130 165 270
4 128 130 270 129
4 128 130 16 165
4 16 165 153 154
4 17 16 14 153
4 131 17 18 14
4 17 141 153 15
4 12 10 15 153
4 15 17 14 153
4 153 16 14 130
4 16 129 22 130
4 128 130 129 16
4 16 128 165 154
4 151 166 153 165
4 260 145 7 151
4 9 6 252 7
4 7 262 252 149
4 260 259 7 251
4 7 259 147 251
4 264 259 271 149
4 259 7 147 149
4 146 148 147 149
4 271 259 147 149
4 148 271 147 149
4 146 142 143 141
4 144 141 140 139
4 141 134 140 139
4 143 141 144 139
4 142 145 141 146
4 145 142 141 144
4 148 142 143 146
4 145 7 10 146
4 145 150 151 153
4 151 272 150 7
4 151 272 273 150
4 151 272 4 273
4 4 272 2 273
4 151 272 7 4
4 4 260 7 151
4 166 145 151 153
4 166 145 169 151
4 171 166 153 145
4 133 16 140 173
4 124 16 21 133
4 25 21 160 23
4 21 129 160 22
4 121 21 124 127
4 121 120 133 119
4 123 121 125 120
4 123 121 120 133
4 25 133 121 21
4 25 20 163 21
4 118 24 28 161
4 26 28 161 32
4 40 115 28 31
4 115 52 113 112
4 246 112 109 52
4 246 52 109 54
4 56 54 109 55
4 56 107 55 248
4 58 60 59 57
4 63 61 65 104
4 68 72 70 67
4 182 75 73 74
4 77 79 75 80
4 196 79 185 194
4 79 78 185 80
4 77 78 82 84
4 83 77 82 84
4 77 74 84 76
4 96 74 93 72
4 103 66 93 68
4 65 66 69 63
4 63 61 104 213
4 61 60 104 213
4 59 227 226 228
4 274 110 227 225
4 246 36 247 37
4 246 36 35 52
4 52 115 40 31
4 28 31 38 40
4 44 42 158 45
4 120 44 122 158
4 135 133 140 173
4 171 16 173 140
4 171 144 153 140
4 141 144 140 153
4 10 141 15 153
4 10 12 15 13
4 10 8 12 13
4 8 10 12 11
4 8 9 11 255
4 9 253 149 252
4 257 262 149 252
4 262 259 149 7
4 258 7 4 260
4 259 258 7 262
4 262 0 7 252
4 0 6 7 252
4 254 6 252 255
4 0 3 6 252
4 6 3 254 252
4 272 6 11 7
4 4 6 272 7
4 4 6 2 272
4 9 6 11 255
4 9 253 252 255
4 262 264 257 149
4 257 264 275 271
4 259 264 262 149
4 257 264 271 149
4 9 146 7 149
4 10 7 11 9
4 7 12 10 11
4 145 150 153 12
4 12 145 10 153
4 145 146 10 141
4 145 142 147 146
4 171 145 153 144
4 171 142 145 144
4 142 171 145 167
4 142 145 147 167
4 167 145 147 251
4 145 260 7 251
4 145 150 12 7
4 12 145 7 10
4 12 152 153 14
4 152 153 14 130
4 152 151 153 165
4 165 152 276 270
4 152 151 165 276
4 165 152 270 130
4 152 151 276 150
4 276 150 151 273
4 272 7 11 150
4 7 12 11 150
4 153 150 152 12
4 165 16 153 130
4 165 152 130 153
4 15 12 153 14
4 13 131 14 15
4 17 131 15 14
4 17 132 18 19
4 25 24 163 20
4 25 24 118 163
4 119 156 164 118
4 118 117 45 156
4 155 45 117 156
4 113 40 117 155
4 50 49 224 48
4 49 50 224 51
4 50 237 224 51
4 237 50 175 51
4 52 54 220 174
4 52 247 220 54
4 39 247 220 52
4 39 247 52 36
4 115 52 35 31
4 40 115 52 113
4 40 115 113 117
4 115 112 113 114
4 53 52 51 54
4 54 53 109 55
4 52 53 109 54
4 110 246 109 54
4 247 110 54 246
4 247 110 274 225
4 246 274 37 247
4 247 110 246 274
4 110 225 54 57
4 57 217 226 219
4 57 217 218 230
4 219 218 54 57
4 218 54 174 220
4 46 39 52 40
4 39 31 52 40
4 38 42 45 40
4 28 38 44 45
4 121 25 44 119
4 123 135 173 133
4 134 153 140 16
4 134 16 140 133
4 137 135 134 140
4 134 153 141 140
4 134 153 16 17
4 16 17 19 134
4 134 153 17 141
4 153 145 10 141
4 6 9 11 7
4 258 7 0 4
4 1 0 2 5

CELL_TYPES 734
10
10
10
10
10
10
10
10
10
10
10
10
10
10
10
10
10
10
10
10
10
10
10
10
10
10
10
10
10
10
10
10
10
10
10
10
10
10
10
10
10
10
10
10
10
10
10
10
10
10
10
10
10
10
10
10
10
10
10
10
10
10
10
10
10
10
10
10
10
10
10
10
10
10
10
10
10
10
10
10
10
10
10
10
10
10
10
10
10
10
10
10
10
10
10
10
10
10
10
10
10
10
10
10
10
10
10
10
10
10
10
10
10
10
10
10
10
10
10
10
10
10
10
10
10
10
10
10
10
10
10
10
10
10
10
10
10
10
10
10
10
10
10
10
10
10
10
10
10
10
10
10
10
10
10
10
10
10
10
10
10
10
10
10
10
10
10
10
10
10
10
10
10
10
10
10
10
10
10
10
10
10
10
10
10
10
10
10
10
10
10
10
10
10
10
10
10
10
10
10
10
10
10
10
10
10
10
10
10
10
10
10
10
10
10
10
10
10
10
10
10
10
10
10
10
10
10
10
10
10
10
10
10
10
10
10
10
10
10
10
10
10
10
10
10
10
10
10
10
10
10
10
10
10
10
10
10
10
10
10
10
10
10
10
10
10
10
10
10
10
10
10
10
10
10
10
10
10
10
10
10
10
10
10
10
10
10
10
10
10
10
10
10
10
10
10
10
10
10
10
10
10
10
10
10
10
10
10
10
10
10
10
10
10
10
10
10
10
10
10
10
10
10
10
10
10
10
10
10
10
10
10
10
10
10
10
10
10
10
10
10
10
10
10
10
10
10
10
10
10
10
10
10
10
10
10
10
10
10
10
10
10
10
10
10
10
10
10
10
10
10
10
10
10
10
10
10
10
10
10
10
10
10
10
10
10
10
10
10
10
10
10
10
10
10
10
10
10
10
10
10
10
10
10
10
10
10
10
10
10
10
10
10
10
10
10
10
10
10
10
10
10
10
10
10
10
10
10
10
10
10
10
10
10
10
10
10
10
10
10
10
10
10
10
10
10
10
10
10
10
10
10
10
10
10
10
10
10
10
10
10
10
10
10
10
10
10
10
10
10
10
10
10
10
10
10
10
10
10
10
10
10
10
10
10
10
10
10
10
10
10
10
10
10
10
10
10
10
10
10
10
10
10
10
10
10
10
10
10
10
10
10
10
10
10
10
10
10
10
10
10
10
10
10
10
10
10
10
10
10
10
10
10
10
10
10
10
10
10
10
10
10
10
10
10
10
10
10
10
10
10
10
10
10
10
10
10
10
10
10
10
10
10
10
10
10
10
10
10
10
10
10
10
10
10
10
10
10
10
10
10
10
10
10
10
10
10
10
10
10
10
10
10
10
10
10
10
10
10
10
10
10
10
10
10
10
10
10
10
10
10
10
10
10
10
10
10
10
10
10
10
10
10
10
10
10
10
10
10
10
10
10
10
10
10
10
10
10
10
10
10
10
10
10
10
10
10
10
10
10
10
10
10
10
10
10
10
10
10
10
10
10
10
10
10
10
10
10
10
10
10
10
10
10
10
10
10
10
10
10
10
10
10
10
10
10
10
10
10
10
10
10
10
10
10
10
10
10
10
10
10
10
10
10
10
10
10
10
10
10
10
10
10
10
10
10
10
10
10
10
10
10
10
10
10
10
10
10
10
10
10
10
10
10

CELL_DATA 734
SCALARS potentialEnergy FLOAT 1
LOOKUP_TABLE default
49.953457
56.502682
64.801453
74.356133
95.118477
85.157455
57.705936
83.434273
33.655811
91.559593
74.183723
51.000042
34.390930
39.613628
101.265419
73.451603
42.704994
56.234837
180.192505
64.275780
64.230297
55.491722
45.037937
63.074169
116.694763
94.513023
83.308907
200.077209
169.070557
95.920204
192.180450
37.484480
184.876541
156.768173
75.883759
97.938454
103.468422
71.568798
75.574371
165.780838
116.565323
85.121269
33.399633
75.865654
121.881203
128.791649
132.363953
76.293755
37.389490
53.662975
73.773430
61.648640
109.811874
288.883575
98.431175
102.052071
113.088341
204.825668
299.045532
330.429504
49.592098
108.841316
36.150452
86.723373
34.528341
49.148602
107.203857
56.869366
55.792191
77.579948
45.412689
35.023281
56.301689
47.885704
53.847336
76.455795
42.757771
34.023914
51.423561
15.979543
19.710863
42.987865
71.149231
104.619293
47.025913
303.561157
24.176719
175.504166
29.039875
90.895241
103.348915
67.272732
37.780130
70.948708
22.595950
69.074017
42.362560
29.361996
34.901302
82.683678
39.731020
47.281425
58.618462
44.727535
41.755255
69.026661
88.066628
33.634506
53.783215
101.243446
47.659233
71.730103
22.018062
111.624428
109.085617
52.609383
52.766666
94.257561
51.515873
52.940758
87.628120
126.740578
139.670258
42.863773
65.575386
76.957161
43.690784
65.942863
39.957565
37.515429
67.853783
120.133003
52.538197
30.084126
236.404999
98.772697
71.946850
43.905598
40.567503
153.026947
18.294089
27.992052
25.954995
17.894973
23.500943
21.559178
106.135185
49.566139
65.431873
125.664742
355.398376
160.694427
205.476440
65.400944
56.667915
134.739525
148.982651
59.958885
49.299892
52.808495
58.540810
187.416779
41.508434
37.759924
83.310089
103.025154
141.988068
40.298044
93.860931
76.596199
42.430908
56.534554
155.128006
248.582458
104.253563
49.447197
60.568722
68.849392
115.409096
100.650757
324.031372
260.801407
78.706688
52.745003
63.584553
67.675770
90.636581
107.798698
107.573021
88.375000
20.872411
38.804955
56.569920
229.368073
86.936363
73.247406
34.458010
157.713394
113.530205
168.474426
84.054535
229.536667
214.159317
427.807159
185.230576
96.786049
146.110535
234.288208
102.040970
270.058655
212.591919
102.161018
378.126251
159.041229
183.493790
209.551239
65.314968
45.575264
128.037201
142.751160
200.119965
86.841278
153.202652
103.730858
115.589348
129.112518
75.600563
208.875549
168.566772
131.552551
83.836845
78.428337
61.548332
39.682816
111.034271
34.652534
61.511158
31.979143
14.964008
37.347803
38.000994
90.657799
159.067719
46.118763
31.097239
87.639565
165.997131
223.566498
439.358093
48.750767
237.418091
107.024315
257.054398
64.031883
242.023056
126.445488
90.548141
71.059895
123.958015
123.698746
160.688202
157.627457
180.835617
231.423019
125.496689
81.445312
171.958237
75.115318
86.443481
77.529976
105.477051
168.712646
147.832596
304.777588
403.539276
190.047501
81.260452
66.153389
76.080276
190.416946
145.732040
178.092422
123.442421
70.666279
93.393341
42.014477
61.221722
209.566574
93.440132
72.082890
191.567886
219.019669
49.951988
155.123154
140.194672
58.049858
163.400375
120.767357
94.760788
51.351372
46.068249
135.357208
103.351295
100.072495
184.950516
258.551437
334.886444
155.587601
153.562927
226.191772
165.370361
232.866455
352.475037
214.974380
113.053711
167.047348
121.284531
52.963009
137.440399
215.344162
169.599258
88.692604
78.838341
98.237183
121.767036
29.649525
21.742054
61.165112
54.339966
79.173706
47.649986
122.055511
58.642544
61.624111
61.414429
40.890287
56.464584
121.379166
58.344166
72.144135
36.264107
59.792358
47.321548
119.437004
204.184418
76.602394
132.878113
199.020126
109.937073
60.606903
73.572422
110.534081
196.110550
162.803360
63.772896
85.988403
137.800461
67.849796
53.931385
92.601944
180.148468
59.254055
145.020569
237.770218
143.294647
68.724506
47.205532
111.000351
29.105803
31.627205
41.688625
45.587090
56.506428
116.796440
42.919582
116.794777
83.405113
71.801762
90.669930
88.062630
127.116608
110.013435
70.616062
59.281170
286.752777
123.758804
39.205046
61.322372
71.105709
61.356895
38.066692
45.805759
115.007286
216.017059
32.847307
67.602814
65.836868
64.390324
24.633136
100.493523
96.881714
52.395256
140.030762
99.543587
111.501450
106.135605
82.623810
50.599388
57.095387
158.397461
42.446053
192.169998
107.837456
46.808781
35.974844
28.627275
26.811867
44.505825
105.225739
108.610466
146.662033
127.254738
122.669235
362.227722
172.860962
60.968960
263.608841
81.330368
230.024338
102.097641
149.257568
197.489868
39.827255
172.213470
88.461197
65.914505
183.540100
47.443050
50.208103
150.306351
112.677055
156.225235
93.982674
254.317398
59.410404
105.446266
147.734238
41.243525
55.017578
134.566353
64.171669
54.814491
80.900589
140.751617
208.050751
126.625099
166.013626
51.101490
84.137787
177.686737
136.659561
62.248356
164.767120
184.227844
183.975525
48.565331
56.557713
48.974022
50.168941
109.359367
118.250412
49.471390
95.547981
41.863001
38.402269
30.395727
23.059595
21.588133
93.890472
97.212311
115.705063
176.326385
202.876404
176.637543
188.843719
95.726639
169.645569
32.054945
125.532784
93.190392
75.254982
82.206718
58.551468
153.654953
154.289505
178.123306
106.672005
280.614075
55.162220
35.345459
74.991562
174.293655
289.821960
139.112244
199.735886
254.890762
49.876617
82.270454
85.944885
104.017769
26.135365
22.725379
17.000856
15.427553
18.933146
29.519678
45.084099
105.914970
31.166994
88.103493
90.600410
72.746258
70.051910
40.321032
74.940697
53.335667
147.883926
74.036758
36.053968
40.654228
24.120131
47.724758
68.892887
74.401588
54.742451
36.265991
53.525829
25.696659
45.757092
41.578661
35.111521
24.451324
45.615982
92.262871
57.792885
75.020615
65.398232
44.791882
24.196946
108.371147
58.927910
41.652939
41.115845
73.076714
45.907036
272.207031
162.951599
43.647137
93.523491
96.241508
59.707111
60.007652
95.019653
94.630051
126.335670
42.030083
70.044357
125.493896
43.572136
67.331696
142.440689
251.761658
149.796967
207.237381
39.218138
68.958447
75.304779
89.655258
53.964718
97.949638
32.552557
53.508263
95.207230
80.216331
84.856270
100.645454
57.069851
22.114347
32.512367
47.584625
41.090227
33.158949
39.063627
54.076580
44.901985
85.545944
29.268877
90.520721
271.885132
125.915047
98.803551
97.917961
160.921127
322.259796
210.623596
50.403133
157.647339
68.078068
30.748913
78.678864
77.082596
241.853058
149.325485
87.507019
167.947632
153.052628
210.051636
292.463043
120.617516
113.607719
89.136948
148.555206
227.872879
72.109921
24.402527
27.699459
46.793793
105.042336
92.824722
82.505257
44.228535
29.999983
55.363361
85.366135
74.450882
87.262718
113.312897
113.025871
49.799305
104.924896
83.725899
56.991856
109.056976
151.508057
146.400528
80.400002
57.636311
117.398674
71.428684
93.861641
115.358551
124.765671
99.081436
54.584251
106.607124
95.025940
127.087326
77.650177
72.585651
116.235321
174.330353
65.360592
130.375923
142.336243
120.431168
71.804871
66.130146
25.090292
69.368141
75.529388
68.745968
82.484688
54.507366
56.248268
55.419899
64.542759
150.728027
38.027802
69.809525
59.416168
52.406364
65.790066
106.514793
41.802933
149.700653
16.812366
54.704189
59.194923
52.587517
57.331875
78.316071
105.239815
90.457413
51.761169
35.330074
40.882259
216.809677
90.375145
85.171814
83.296303
272.918365
161.745987
135.734200
86.541222
109.801300
90.936874
138.078476
106.711487
130.766037
102.830666
56.006638
98.210274
82.380135
70.163540
290.534607
66.235874
118.756836
126.655319
183.660141
19.912471
85.973335
74.812401
16.199884
121.653320
53.258839
58.695023
82.299446
53.425495
27.197638
60.998405
50.591591
109.414795
66.496330
41.388350

