# vtk DataFile Version 3.1
Tetrahedral Mesh Visualization
ASCII
DATASET UNSTRUCTURED_GRID

POINTS 277 FLOAT
0.000000 1.378113 1.754166
0.000000 0.000000 0.000000
2.000659 -0.003989 -0.003142
0.000000 1.666667 0.000000
2.420360 0.001675 1.730416
0.000000 0.000000 1.666667
1.691996 2.465259 -0.004003
3.000468 2.458564 2.316002
4.002711 5.008440 -0.008190
3.074428 5.001585 1.633580
5.210348 5.012134 1.603408
3.489189 3.182605 -0.008134
5.404105 3.313103 -0.003049
6.004541 5.002355 -0.007395
7.361337 3.328448 -0.009404
6.973561 5.002535 1.317518
9.249617 2.180018 2.021500
8.699755 5.000146 1.596937
9.348134 3.326284 -0.011076
10.668072 4.989636 1.642173
11.353083 3.316594 -0.006713
11.110335 1.857607 1.547605
10.671439 1.655562 -0.005823
12.681575 1.653129 0.009295
13.358497 3.313700 0.009043
12.977654 1.865197 1.502883
14.693707 1.655072 0.038841
14.018448 -0.006186 0.026068
15.475900 2.141032 1.739939
15.340230 0.001278 1.709528
13.334811 -0.005553 1.678406
17.296650 -0.016183 1.716654
16.700417 1.640317 0.081306
18.034855 -0.020149 0.130916
16.024754 -0.018950 0.068399
18.721075 1.636994 0.133008
19.024023 -0.020107 1.472708
20.054520 -0.023636 0.185361
16.713865 -0.005874 3.397379
18.989197 -0.022390 3.258079
17.696756 2.661220 3.048996
17.934666 -0.017062 5.121746
16.634106 1.662126 5.096018
15.942135 -0.000226 5.078411
14.668718 0.007110 3.365540
15.766218 2.888645 3.413388
18.676470 1.675230 5.134767
17.271032 3.329698 5.095973
19.226974 3.366663 5.141768
19.304089 4.970366 3.459689
20.928919 3.670197 5.203376
21.301563 4.976152 3.538452
19.631613 2.464762 2.505904
20.680614 4.974173 1.844737
21.909500 2.481924 2.716397
22.672844 4.976568 1.917311
23.340199 3.350124 0.290023
23.970346 2.417348 2.607848
25.047218 3.648069 0.335306
25.049484 1.853831 0.346655
25.996780 2.479278 2.088135
27.306145 1.672248 0.378677
26.754141 3.365239 0.364224
29.275511 -0.016310 2.031856
28.036098 -0.025791 0.398572
29.350418 1.641401 0.405910
30.993561 -0.019885 1.751039
32.032265 -0.033649 0.439997
31.351816 1.628663 0.425313
30.031841 -0.029544 0.420384
33.318245 1.614955 0.460980
34.035645 -0.043243 0.490250
32.681026 -0.017746 2.064771
34.598591 -0.028328 2.186167
34.985344 2.377550 3.035911
36.511940 -0.035105 2.380503
35.113514 -0.019734 3.900593
36.801807 -0.018317 4.112237
38.236897 2.520003 5.582504
37.686085 2.139699 2.764992
38.292114 -0.024088 3.129252
38.036545 -0.048656 0.595190
37.951599 -0.002625 5.584815
35.936779 -0.007052 5.539080
36.499916 1.740711 5.549945
34.870441 1.324669 5.498602
34.790199 3.122658 5.486657
36.697468 3.477174 5.542545
33.939514 4.988321 5.460340
32.634335 3.304340 5.440626
33.247856 4.987155 3.786538
31.938789 5.007305 5.402438
35.129566 4.980427 3.875711
32.198170 2.589635 2.866246
34.602840 4.961133 2.160394
32.679806 3.288157 0.436367
33.177540 -0.013268 3.773981
30.962254 -0.008590 3.544872
31.258429 1.659691 5.431619
33.185219 1.602484 5.456900
30.610912 3.335458 5.412597
28.605251 3.346912 5.393053
29.273830 1.680731 5.415633
30.014191 2.489805 2.887114
27.956873 2.483899 2.869300
26.601412 3.347090 5.354068
27.268724 1.681998 5.378242
24.670923 4.975824 1.979194
22.060289 4.975113 0.227139
21.393528 3.312920 0.214268
22.789749 1.649787 0.287193
20.058897 4.966555 0.160070
19.391497 3.297295 0.141327
18.677122 4.959371 1.772019
18.051611 4.952641 0.087737
17.376432 3.294283 0.083240
16.044500 4.965802 0.048186
16.681471 4.973690 1.728303
14.675975 4.987432 1.696452
13.686432 2.960689 3.292135
12.964724 1.324049 5.013938
12.656762 0.002989 3.339044
13.960213 0.001267 5.027467
11.254789 1.615258 4.999107
10.650879 0.005145 3.327348
11.972903 -0.006462 4.999306
9.981562 0.003637 4.997073
11.323102 -0.006157 1.664544
9.302362 -0.000048 1.664715
9.994300 -0.007964 -0.005412
8.682411 1.661309 -0.005782
8.005634 4.997497 -0.010245
10.012722 4.990152 -0.010352
11.216455 2.644498 3.276324
9.251795 5.002394 3.287959
10.726085 3.313698 4.993534
11.306891 4.997925 3.315826
9.992339 5.002733 4.988962
11.982063 5.000683 5.000020
7.998070 5.009079 4.988820
8.731739 3.393534 4.990956
6.965883 5.008549 3.104796
5.356131 3.381851 4.993818
5.998545 5.015079 4.989316
7.026917 3.690619 4.995809
5.140454 2.381364 3.135122
4.617789 5.005982 3.284576
3.483341 3.193727 4.994918
3.995658 5.005005 4.993502
2.369138 5.001395 3.270284
4.839016 1.613482 -0.003993
4.904398 0.007692 1.876922
6.721618 1.655093 -0.003744
7.009270 2.567757 2.187948
8.646222 0.003082 3.334257
17.317028 4.986142 3.412477
15.322462 5.005223 3.372206
15.967950 5.004897 5.058531
14.675941 1.616041 5.044096
15.230173 3.312444 5.049507
12.004970 -0.008938 0.005456
15.366180 3.313541 0.044703
14.034863 4.979661 0.022126
12.673202 4.983632 1.666574
13.318365 4.998482 3.345824
7.235975 0.003104 1.692211
6.664941 0.004128 3.380320
4.906039 1.658302 4.997479
5.987142 0.008159 5.002056
4.910534 0.009414 3.660466
3.995816 0.005130 4.997895
7.039538 1.894911 4.996471
7.986967 0.007410 4.999386
9.263784 1.696157 4.995258
20.934525 1.878340 5.209585
22.639742 3.384867 5.260070
23.930183 5.000765 5.277091
24.598406 3.344637 5.309285
23.299332 4.977903 3.599235
27.305536 4.997386 3.692055
26.673477 4.983099 2.017305
25.303526 4.987335 3.652524
35.206020 1.556733 0.510064
36.881306 1.406580 0.559697
39.966175 3.237983 4.223128
39.983959 1.609289 3.199837
38.293697 4.982582 3.097246
39.995628 3.222217 2.495494
39.964310 4.996099 3.913475
37.936157 5.005220 5.560476
39.934494 5.003182 5.575242
39.941502 3.334729 5.598237
39.949181 1.668507 5.592724
39.976627 -0.018985 3.938023
40.002678 -0.030060 2.281333
40.035755 -0.050699 0.620646
40.034424 1.619165 0.599680
40.032646 3.288008 0.592868
38.346039 2.422952 0.581704
38.045139 4.958315 0.560313
40.005974 4.968647 2.245497
36.806957 4.987228 4.081577
36.518021 4.970243 2.347998
36.557693 3.132447 0.536470
36.051632 4.952500 0.511023
34.642681 3.255419 0.478998
34.049576 4.947201 0.449024
30.693659 3.291982 0.400112
30.036808 4.960155 0.374465
32.043331 4.956952 0.409786
30.659025 4.972223 2.047913
28.703966 3.310640 0.386630
26.701782 -0.010048 3.771194
27.275700 -0.015459 2.083854
25.256983 1.680677 5.343265
23.938231 0.000804 5.334757
25.947975 0.013553 5.376956
24.970699 -0.011855 4.039922
23.200172 1.692287 5.293988
23.251194 -0.019157 3.694371
21.239557 -0.020873 3.537331
21.931725 -0.006969 5.253226
19.932816 -0.019458 5.179953
17.951986 4.988780 5.102407
19.924240 4.985049 5.153793
22.745630 -0.044431 1.985860
25.009600 -0.032705 2.253662
24.054232 -0.045707 0.343439
26.044209 -0.034653 0.380069
26.045185 4.972470 0.342679
25.676414 2.224463 3.835728
28.669291 4.982234 2.039114
28.045319 4.973948 0.365009
25.935640 5.007589 5.330409
12.023749 4.981768 0.001487
12.974690 3.113320 5.016397
13.975208 5.007319 5.024337
21.926737 4.994025 5.222456
28.713940 -0.000198 3.727616
29.300636 4.994747 3.715227
29.945990 5.008895 5.388165
31.282051 4.992682 3.729442
31.946676 -0.001226 5.446650
33.934002 -0.012027 5.475545
35.932350 4.992595 5.508029
32.646526 4.975122 2.093466
20.747131 1.642004 0.195755
20.744684 -0.031042 1.817768
24.047672 4.964228 0.298186
27.940741 5.013309 5.368415
40.046089 4.948817 0.573064
3.180262 1.468144 4.995078
0.000000 3.103853 1.750106
0.000000 5.000000 1.666667
0.000000 3.333333 0.000000
2.000263 4.998492 -0.008810
0.000000 5.000000 0.000000
0.000000 5.000000 3.333333
0.000000 0.000000 3.333333
1.696507 2.469535 4.994866
3.035769 0.002981 3.385599
1.998987 -0.000517 4.997969
0.000000 2.403264 3.370902
0.000000 1.666667 5.000000
0.000000 3.333333 5.000000
0.000000 0.000000 5.000000
27.948944 0.020667 5.407131
29.951834 0.015743 5.434208
36.044483 -0.054685 0.550663
39.959904 0.006166 5.603477
7.994563 -0.005925 0.001695
2.001463 5.000460 4.993675
3.161237 1.455058 -0.004908
4.001718 0.005025 -0.002577
22.059114 -0.050403 0.263131
0.000000 5.000000 5.000000
5.997405 0.000975 0.000875

CELLS 734 3670
4 0 1 2 3
4 0 4 2 5
4 0 3 2 6
4 4 6 0 2
4 4 6 7 0
4 8 9 10 11
4 12 13 14 15
4 16 17 14 18
4 19 20 18 21
4 20 22 21 23
4 24 25 26 23
4 25 27 26 23
4 26 28 29 30
4 28 29 31 32
4 33 34 32 31
4 31 33 35 32
4 31 33 36 35
4 33 37 36 35
4 38 39 40 31
4 41 42 43 38
4 44 42 45 38
4 44 42 38 43
4 46 38 42 41
4 46 47 40 48
4 49 50 51 52
4 53 54 51 55
4 56 54 55 57
4 56 58 59 57
4 60 59 61 62
4 63 61 64 65
4 66 67 68 69
4 67 70 71 72
4 73 74 75 76
4 74 77 75 76
4 77 78 79 80
4 79 81 75 80
4 77 78 80 82
4 77 83 76 84
4 83 85 76 84
4 85 86 74 84
4 74 86 87 84
4 88 89 86 90
4 91 89 88 90
4 86 88 90 92
4 90 86 92 74
4 86 89 74 90
4 93 94 95 74
4 70 74 72 93
4 70 73 71 72
4 74 96 73 72
4 66 97 93 72
4 96 97 72 93
4 96 98 97 93
4 85 96 74 99
4 96 98 93 99
4 98 89 100 93
4 101 102 100 103
4 104 105 101 106
4 107 58 57 60
4 58 107 57 56
4 53 108 109 55
4 56 110 109 54
4 53 111 109 108
4 112 53 109 52
4 111 112 113 53
4 112 111 113 114
4 115 116 114 117
4 40 28 115 117
4 45 117 118 28
4 119 28 25 44
4 120 44 121 122
4 123 121 124 125
4 125 123 126 124
4 127 128 21 124
4 16 129 128 21
4 16 18 14 130
4 16 17 18 19
4 131 17 132 18
4 16 19 18 21
4 133 16 19 134
4 135 134 133 136
4 135 137 136 138
4 137 134 139 140
4 141 142 143 144
4 145 146 147 7
4 142 148 147 146
4 7 146 147 149
4 10 7 9 146
4 145 150 7 151
4 152 151 150 153
4 16 128 154 124
4 124 21 121 133
4 25 28 30 44
4 28 38 45 40
4 45 47 40 42
4 155 45 156 47
4 157 156 47 155
4 155 45 40 117
4 45 42 158 159
4 44 42 43 158
4 119 45 158 159
4 120 44 158 119
4 25 127 21 121
4 25 27 160 30
4 127 25 160 30
4 25 127 121 30
4 44 25 121 30
4 28 30 44 29
4 119 28 44 45
4 119 28 118 25
4 28 24 26 161
4 26 32 29 28
4 28 31 29 38
4 46 38 41 39
4 46 38 39 40
4 28 117 40 45
4 118 28 117 161
4 162 24 118 161
4 118 119 163 164
4 136 119 164 163
4 25 133 21 163
4 128 16 21 124
4 165 166 153 154
4 166 167 168 169
4 167 168 169 170
4 171 168 172 166
4 124 173 126 154
4 123 121 133 124
4 120 125 122 121
4 122 158 44 43
4 47 46 40 42
4 52 50 174 48
4 175 50 174 54
4 176 175 177 178
4 179 60 180 181
4 64 69 63 65
4 68 72 67 66
4 70 73 182 71
4 74 79 183 75
4 184 78 185 79
4 79 184 186 187
4 186 184 188 187
4 184 189 190 191
4 184 78 79 186
4 78 189 184 191
4 189 184 190 188
4 184 78 191 192
4 184 78 192 185
4 192 78 80 185
4 193 80 194 185
4 195 81 196 194
4 81 79 196 194
4 197 187 196 198
4 187 79 185 196
4 79 184 187 185
4 197 199 187 198
4 199 197 187 200
4 199 200 187 186
4 78 201 79 186
4 189 201 87 78
4 202 201 79 74
4 201 74 92 87
4 201 202 92 74
4 201 202 79 186
4 202 203 74 79
4 202 198 203 79
4 204 202 199 203
4 202 203 205 74
4 202 204 205 203
4 182 203 74 205
4 74 203 183 79
4 79 203 183 198
4 79 81 198 183
4 81 79 198 196
4 187 79 196 198
4 202 198 79 186
4 202 204 94 205
4 94 95 205 206
4 207 208 209 210
4 208 207 211 210
4 104 103 211 65
4 104 60 212 213
4 214 215 216 217
4 218 219 220 221
4 222 174 220 221
4 46 39 222 174
4 52 46 40 48
4 40 49 52 48
4 53 49 52 113
4 40 49 155 113
4 155 45 47 40
4 157 47 223 155
4 49 223 224 48
4 52 50 51 54
4 175 54 57 178
4 218 175 54 57
4 225 219 54 57
4 218 175 57 177
4 57 217 219 218
4 219 225 226 57
4 225 227 226 57
4 59 110 57 227
4 59 60 61 228
4 61 60 213 228
4 64 61 213 228
4 63 61 213 64
4 61 104 211 65
4 180 60 104 62
4 58 229 62 180
4 58 60 180 62
4 60 61 104 62
4 60 226 230 212
4 226 60 213 212
4 60 104 212 230
4 179 60 230 104
4 104 211 231 62
4 180 229 62 232
4 180 232 62 231
4 179 60 104 180
4 233 181 105 179
4 181 105 179 230
4 105 214 106 230
4 105 214 230 177
4 215 214 218 217
4 215 217 218 219
4 218 215 219 221
4 218 175 174 54
4 39 52 220 174
4 39 46 52 174
4 115 52 112 35
4 28 115 117 161
4 162 118 116 161
4 24 162 118 163
4 20 19 234 163
4 25 133 163 119
4 120 119 158 235
4 236 119 235 159
4 235 119 158 159
4 119 235 133 136
4 138 235 236 164
4 45 47 42 159
4 46 38 40 42
4 49 50 52 48
4 237 175 176 178
4 181 233 177 176
4 180 179 231 104
4 207 103 65 211
4 207 103 68 65
4 65 66 103 68
4 103 66 97 93
4 66 103 97 63
4 213 104 63 238
4 238 97 103 63
4 104 102 103 238
4 104 106 212 230
4 214 212 106 230
4 214 212 216 106
4 214 212 217 216
4 214 212 230 217
4 226 217 230 212
4 226 60 230 57
4 181 60 57 230
4 179 105 104 230
4 179 105 101 104
4 104 239 103 101
4 239 101 240 100
4 91 241 240 100
4 241 239 240 100
4 239 241 103 100
4 103 210 93 241
4 103 207 93 210
4 210 103 231 239
4 103 239 104 231
4 103 104 63 65
4 65 66 63 103
4 65 66 68 69
4 68 72 66 93
4 96 98 242 97
4 85 96 99 243
4 85 86 99 74
4 86 89 99 74
4 88 86 244 92
4 74 86 92 87
4 201 244 87 92
4 244 86 87 92
4 90 74 92 94
4 94 95 206 245
4 95 209 206 245
4 245 207 95 209
4 208 232 231 211
4 180 104 231 62
4 181 60 107 57
4 54 175 51 178
4 50 52 174 54
4 246 36 52 247
4 246 36 37 35
4 52 31 36 35
4 31 39 52 36
4 39 46 222 41
4 39 222 174 220
4 174 218 220 221
4 218 219 54 220
4 225 219 220 54
4 56 110 54 57
4 110 56 59 57
4 60 59 226 228
4 60 226 213 228
4 57 217 230 226
4 214 217 230 218
4 218 57 230 177
4 181 105 230 177
4 179 60 181 230
4 58 107 180 60
4 229 107 58 248
4 229 107 180 58
4 60 58 59 62
4 58 107 56 248
4 108 56 109 55
4 108 56 55 248
4 107 56 55 57
4 107 181 57 178
4 57 181 177 178
4 181 176 177 178
4 233 181 177 105
4 249 239 101 240
4 91 89 241 100
4 89 91 241 90
4 210 245 93 241
4 245 241 90 93
4 93 94 90 245
4 74 202 92 94
4 205 204 94 206
4 202 198 199 203
4 202 198 186 199
4 199 197 200 250
4 199 186 187 198
4 200 186 188 187
4 184 189 186 188
4 201 189 87 244
4 189 201 78 186
4 201 78 79 87
4 189 78 184 186
4 186 79 187 198
4 74 201 79 87
4 74 79 84 87
4 79 78 84 87
4 77 78 84 79
4 74 77 84 79
4 74 85 84 76
4 83 243 76 85
4 85 96 243 76
4 73 96 74 76
4 96 93 74 99
4 89 93 99 74
4 93 94 74 90
4 93 94 245 95
4 207 95 68 93
4 95 70 68 93
4 95 70 74 205
4 74 70 182 205
4 94 95 74 205
4 241 89 90 93
4 104 179 231 239
4 181 60 180 107
4 107 57 55 178
4 57 54 55 178
4 53 49 51 52
4 40 49 113 52
4 155 47 223 48
4 45 47 159 156
4 119 156 45 159
4 120 44 119 121
4 16 173 124 154
4 166 167 169 145
4 145 7 147 251
4 9 7 252 149
4 253 254 252 255
4 256 253 255 254
4 6 9 252 255
4 253 257 149 252
4 7 258 259 260
4 260 261 251 170
4 169 260 251 170
4 169 251 167 170
4 166 167 145 171
4 16 22 18 130
4 25 24 20 23
4 24 25 118 28
4 119 156 118 45
4 119 28 45 118
4 119 45 44 158
4 44 38 28 29
4 25 28 26 30
4 25 24 26 28
4 24 20 234 163
4 162 24 234 163
4 163 119 118 25
4 235 135 133 136
4 135 134 140 133
4 145 141 153 144
4 145 260 169 151
4 0 258 4 5
4 259 258 262 263
4 264 259 262 263
4 258 7 262 0
4 260 258 259 261
4 258 261 263 259
4 261 258 263 265
4 261 260 251 259
4 167 251 169 145
4 145 260 251 169
4 166 167 171 168
4 16 171 153 140
4 137 135 136 134
4 138 135 235 136
4 235 138 136 164
4 236 119 156 164
4 157 156 159 47
4 155 47 48 40
4 40 49 48 155
4 46 52 174 48
4 247 225 220 54
4 110 225 57 227
4 60 59 57 226
4 104 61 211 62
4 232 211 62 231
4 103 104 211 231
4 239 210 103 241
4 241 93 103 100
4 68 72 93 70
4 103 207 68 93
4 207 103 211 210
4 210 208 231 211
4 103 210 231 211
4 245 207 210 93
4 245 207 209 210
4 245 207 93 95
4 70 95 74 93
4 70 73 74 182
4 182 203 183 74
4 202 74 205 94
4 93 89 90 74
4 89 241 100 93
4 93 98 103 100
4 101 104 102 103
4 104 101 102 106
4 106 238 104 212
4 266 216 212 106
4 106 238 212 266
4 106 238 102 104
4 267 266 238 102
4 97 102 267 238
4 106 238 266 102
4 97 102 238 103
4 97 102 103 98
4 97 102 98 267
4 97 98 242 267
4 96 98 99 242
4 89 98 99 93
4 239 101 100 103
4 104 179 239 101
4 179 249 239 101
4 105 179 101 249
4 233 105 249 179
4 177 181 57 230
4 175 57 177 178
4 175 237 51 178
4 55 54 51 178
4 112 111 109 53
4 112 53 52 113
4 117 115 113 114
4 116 118 117 161
4 115 116 117 161
4 28 115 161 32
4 29 32 26 34
4 26 30 29 27
4 34 26 29 27
4 29 34 31 32
4 31 115 32 35
4 31 115 28 32
4 246 112 52 35
4 246 247 52 54
4 247 110 225 54
4 59 227 57 226
4 213 104 238 212
4 104 103 63 238
4 97 98 103 93
4 70 73 72 74
4 71 182 268 73
4 182 75 268 73
4 182 75 183 268
4 183 81 268 75
4 182 75 74 183
4 79 81 183 75
4 79 81 80 194
4 78 192 80 82
4 192 193 80 82
4 269 193 192 82
4 193 192 80 185
4 80 79 194 185
4 77 74 75 79
4 85 96 76 74
4 96 243 242 99
4 98 102 103 100
4 104 105 106 230
4 214 218 230 177
4 50 175 51 54
4 49 155 223 48
4 157 156 236 159
4 236 119 159 156
4 235 119 164 136
4 236 119 164 235
4 133 235 120 123
4 120 235 133 119
4 135 123 235 133
4 124 173 123 126
4 173 172 126 154
4 166 171 154 172
4 172 171 154 173
4 171 16 154 173
4 171 166 154 153
4 16 171 154 153
4 124 173 16 133
4 124 173 133 123
4 25 133 119 121
4 19 16 133 21
4 163 19 133 21
4 134 19 133 136
4 133 119 136 163
4 133 19 163 136
4 132 20 18 19
4 20 132 234 19
4 20 19 163 21
4 22 20 21 18
4 16 22 21 18
4 128 129 127 21
4 160 129 21 127
4 160 21 25 127
4 25 20 21 23
4 25 27 23 160
4 25 27 30 26
4 23 22 21 160
4 16 129 21 22
4 128 130 165 270
4 128 130 270 129
4 128 130 16 165
4 16 165 153 154
4 17 16 14 153
4 131 17 18 14
4 17 141 153 15
4 12 10 15 153
4 15 17 14 153
4 153 16 14 130
4 16 129 22 130
4 128 130 129 16
4 16 128 165 154
4 151 166 153 165
4 260 145 7 151
4 9 6 252 7
4 7 262 252 149
4 260 259 7 251
4 7 259 147 251
4 264 259 271 149
4 259 7 147 149
4 146 148 147 149
4 271 259 147 149
4 148 271 147 149
4 146 142 143 141
4 144 141 140 139
4 141 134 140 139
4 143 141 144 139
4 142 145 141 146
4 145 142 141 144
4 148 142 143 146
4 145 7 10 146
4 145 150 151 153
4 151 272 150 7
4 151 272 273 150
4 151 272 4 273
4 4 272 2 273
4 151 272 7 4
4 4 260 7 151
4 166 145 151 153
4 166 145 169 151
4 171 166 153 145
4 133 16 140 173
4 124 16 21 133
4 25 21 160 23
4 21 129 160 22
4 121 21 124 127
4 121 120 133 119
4 123 121 125 120
4 123 121 120 133
4 25 133 121 21
4 25 20 163 21
4 118 24 28 161
4 26 28 161 32
4 40 115 28 31
4 115 52 113 112
4 246 112 109 52
4 246 52 109 54
4 56 54 109 55
4 56 107 55 248
4 58 60 59 57
4 63 61 65 104
4 68 72 70 67
4 182 75 73 74
4 77 79 75 80
4 196 79 185 194
4 79 78 185 80
4 77 78 82 84
4 83 77 82 84
4 77 74 84 76
4 96 74 93 72
4 103 66 93 68
4 65 66 69 63
4 63 61 104 213
4 61 60 104 213
4 59 227 226 228
4 274 110 227 225
4 246 36 247 37
4 246 36 35 52
4 52 115 40 31
4 28 31 38 40
4 44 42 158 45
4 120 44 122 158
4 135 133 140 173
4 171 16 173 140
4 171 144 153 140
4 141 144 140 153
4 10 141 15 153
4 10 12 15 13
4 10 8 12 13
4 8 10 12 11
4 8 9 11 255
4 9 253 149 252
4 257 262 149 252
4 262 259 149 7
4 258 7 4 260
4 259 258 7 262
4 262 0 7 252
4 0 6 7 252
4 254 6 252 255
4 0 3 6 252
4 6 3 254 252
4 272 6 11 7
4 4 6 272 7
4 4 6 2 272
4 9 6 11 255
4 9 253 252 255
4 262 264 257 149
4 257 264 275 271
4 259 264 262 149
4 257 264 271 149
4 9 146 7 149
4 10 7 11 9
4 7 12 10 11
4 145 150 153 12
4 12 145 10 153
4 145 146 10 141
4 145 142 147 146
4 171 145 153 144
4 171 142 145 144
4 142 171 145 167
4 142 145 147 167
4 167 145 147 251
4 145 260 7 251
4 145 150 12 7
4 12 145 7 10
4 12 152 153 14
4 152 153 14 130
4 152 151 153 165
4 165 152 276 270
4 152 151 165 276
4 165 152 270 130
4 152 151 276 150
4 276 150 151 273
4 272 7 11 150
4 7 12 11 150
4 153 150 152 12
4 165 16 153 130
4 165 152 130 153
4 15 12 153 14
4 13 131 14 15
4 17 131 15 14
4 17 132 18 19
4 25 24 163 20
4 25 24 118 163
4 119 156 164 118
4 118 117 45 156
4 155 45 117 156
4 113 40 117 155
4 50 49 224 48
4 49 50 224 51
4 50 237 224 51
4 237 50 175 51
4 52 54 220 174
4 52 247 220 54
4 39 247 220 52
4 39 247 52 36
4 115 52 35 31
4 40 115 52 113
4 40 115 113 117
4 115 112 113 114
4 53 52 51 54
4 54 53 109 55
4 52 53 109 54
4 110 246 109 54
4 247 110 54 246
4 247 110 274 225
4 246 274 37 247
4 247 110 246 274
4 110 225 54 57
4 57 217 226 219
4 57 217 218 230
4 219 218 54 57
4 218 54 174 220
4 46 39 52 40
4 39 31 52 40
4 38 42 45 40
4 28 38 44 45
4 121 25 44 119
4 123 135 173 133
4 134 153 140 16
4 134 16 140 133
4 137 135 134 140
4 134 153 141 140
4 134 153 16 17
4 16 17 19 134
4 134 153 17 141
4 153 145 10 141
4 6 9 11 7
4 258 7 0 4
4 1 0 2 5

CELL_TYPES 734
10
10
10
10
10
10
10
10
10
10
10
10
10
10
10
10
10
10
10
10
10
10
10
10
10
10
10
10
10
10
10
10
10
10
10
10
10
10
10
10
10
10
10
10
10
10
10
10
10
10
10
10
10
10
10
10
10
10
10
10
10
10
10
10
10
10
10
10
10
10
10
10
10
10
10
10
10
10
10
10
10
10
10
10
10
10
10
10
10
10
10
10
10
10
10
10
10
10
10
10
10
10
10
10
10
10
10
10
10
10
10
10
10
10
10
10
10
10
10
10
10
10
10
10
10
10
10
10
10
10
10
10
10
10
10
10
10
10
10
10
10
10
10
10
10
10
10
10
10
10
10
10
10
10
10
10
10
10
10
10
10
10
10
10
10
10
10
10
10
10
10
10
10
10
10
10
10
10
10
10
10
10
10
10
10
10
10
10
10
10
10
10
10
10
10
10
10
10
10
10
10
10
10
10
10
10
10
10
10
10
10
10
10
10
10
10
10
10
10
10
10
10
10
10
10
10
10
10
10
10
10
10
10
10
10
10
10
10
10
10
10
10
10
10
10
10
10
10
10
10
10
10
10
10
10
10
10
10
10
10
10
10
10
10
10
10
10
10
10
10
10
10
10
10
10
10
10
10
10
10
10
10
10
10
10
10
10
10
10
10
10
10
10
10
10
10
10
10
10
10
10
10
10
10
10
10
10
10
10
10
10
10
10
10
10
10
10
10
10
10
10
10
10
10
10
10
10
10
10
10
10
10
10
10
10
10
10
10
10
10
10
10
10
10
10
10
10
10
10
10
10
10
10
10
10
10
10
10
10
10
10
10
10
10
10
10
10
10
10
10
10
10
10
10
10
10
10
10
10
10
10
10
10
10
10
10
10
10
10
10
10
10
10
10
10
10
10
10
10
10
10
10
10
10
10
10
10
10
10
10
10
10
10
10
10
10
10
10
10
10
10
10
10
10
10
10
10
10
10
10
10
10
10
10
10
10
10
10
10
10
10
10
10
10
10
10
10
10
10
10
10
10
10
10
10
10
10
10
10
10
10
10
10
10
10
10
10
10
10
10
10
10
10
10
10
10
10
10
10
10
10
10
10
10
10
10
10
10
10
10
10
10
10
10
10
10
10
10
10
10
10
10
10
10
10
10
10
10
10
10
10
10
10
10
10
10
10
10
10
10
10
10
10
10
10
10
10
10
10
10
10
10
10
10
10
10
10
10
10
10
10
10
10
10
10
10
10
10
10
10
10
10
10
10
10
10
10
10
10
10
10
10
10
10
10
10
10
10
10
10
10
10
10
10
10
10
10
10
10
10
10
10
10
10
10
10
10
10
10
10
10
10
10
10
10
10
10
10
10
10
10
10
10
10
10
10
10
10
10
10
10
10
10
10
10
10
10
10
10
10
10
10
10
10
10
10
10
10
10
10
10
10
10
10
10
10
10
10
10
10
10
10
10
10
10
10
10
10
10
10
10
10
10
10
10
10
10
10
10
10
10
10
10
10
10
10
10
10
10
10
10
10
10
10
10
10
10
10
10
10
10
10
10
10
10
10
10
10
10
10
10
10
10
10
10
10
10
10
10
10
10
10
10
10
10
10
10
10
10
10
10
10
10
10
10
10
10
10
10
10
10
10
10
10
10
10
10
10
10
10
10
10
10
10

CELL_DATA 734
SCALARS potentialEnergy FLOAT 1
LOOKUP_TABLE default
16.807812
20.803600
18.463242
23.672313
21.377300
60.923645
28.025764
112.673767
194.834961
141.116028
144.544052
139.342682
82.020592
242.661880
179.196777
252.076126
305.775848
226.608810
163.453918
74.886284
190.838181
79.835052
46.739540
285.213684
296.754395
148.112473
213.751511
65.238476
175.816605
28.514154
59.014835
66.769051
181.235245
140.806610
91.995842
101.737175
102.703476
67.123379
66.486813
158.881714
145.619751
100.254326
128.915779
48.910633
60.102943
150.013550
114.663383
106.369667
46.870216
87.278214
63.418144
60.847420
126.172775
55.509979
104.131592
76.570099
150.031174
110.227264
107.874611
77.476433
113.602058
433.200317
82.791710
306.136566
223.112610
183.229904
142.371124
228.499069
246.061493
185.375153
76.750702
47.234306
73.681427
72.997585
50.691021
38.172380
28.726509
45.024677
30.526617
96.725273
79.264412
81.511887
42.296917
17.878480
31.033817
33.702282
40.801952
44.998596
40.868723
35.243958
23.894502
135.651024
151.117218
258.561966
131.652473
109.160614
72.200886
150.640732
114.897102
169.502655
68.306984
103.486465
47.220490
148.454086
105.562561
44.994656
93.821945
97.337326
117.821106
192.085052
83.690453
169.742355
187.949692
65.614353
137.098824
223.318298
369.783691
148.934219
84.105804
68.103168
134.300941
115.916367
26.387486
31.570917
53.613396
57.669647
99.446716
89.232399
115.546066
231.148987
71.842709
241.827362
92.229805
38.843237
79.888626
85.696014
61.704903
53.768055
124.901749
136.604599
91.422630
120.234909
105.508507
73.697861
99.365158
154.519180
101.041824
201.673737
235.355682
191.292755
126.925194
198.526505
179.738663
184.028885
112.813194
150.730408
180.374619
169.009201
40.848211
29.895027
228.106583
129.369781
85.633194
41.427692
172.650742
68.324238
53.499886
187.720825
78.233879
88.009865
105.013046
81.588478
89.898422
204.283249
158.659119
151.889038
104.936562
60.732361
68.482224
113.657257
64.751659
59.924892
91.421188
162.160431
154.640015
141.791473
68.207520
151.501236
165.690308
151.081863
220.733170
199.825287
385.182251
331.079773
116.827995
100.698616
174.046616
62.458984
103.447960
154.060165
171.097214
126.604317
120.316864
127.287926
99.557030
49.750847
56.176159
40.061222
39.785492
48.927723
157.351776
116.821465
158.018692
61.643627
64.655907
102.724960
48.501392
62.439743
42.263981
44.784473
64.588478
36.439184
34.615137
97.456291
56.639736
224.542328
179.881454
273.284790
354.615173
214.624527
210.194977
137.873680
138.621384
66.355537
170.097641
75.577057
148.045593
155.687012
39.991341
58.240101
209.490997
222.452499
356.830994
44.664562
45.782768
99.848740
163.506134
151.597641
138.126785
124.359261
81.252594
74.777077
93.416763
201.699432
91.989731
36.575079
47.365639
27.816326
123.462669
72.637722
114.557121
70.276028
83.231544
39.236835
161.277161
56.602306
103.995979
100.427048
278.640656
193.654282
172.553833
294.824036
103.178436
91.049774
136.897781
66.404350
137.942513
61.510666
83.565361
71.730270
66.594872
58.887417
137.154724
37.020794
40.177166
96.486740
27.476303
60.008812
45.371635
191.728714
104.715096
97.590767
106.245087
323.702606
193.172836
161.324142
123.997612
226.989532
55.877308
134.028915
137.005440
396.514069
466.606781
230.119293
85.683197
115.902008
143.558380
38.161915
102.024170
54.774212
96.637642
54.229359
65.586018
33.063208
42.719078
39.253012
58.557014
161.938934
183.820374
187.049149
210.006180
136.970581
47.345699
53.636997
157.817841
73.908596
57.538342
40.348619
91.448570
60.387440
106.390701
61.458473
53.070351
98.200668
239.492020
119.757324
180.893433
197.809036
88.122505
76.209091
33.623985
93.707939
126.654709
185.539230
150.060120
37.731161
43.640282
146.115738
123.499161
55.734707
73.193485
85.925980
78.883789
65.855667
113.841209
68.620483
51.464199
34.980375
73.321743
75.136307
78.328423
68.930649
86.887123
60.457458
123.921524
132.004028
145.147186
81.802475
132.120781
324.926178
125.210663
90.923233
51.035740
23.677446
23.504769
22.539303
23.171710
21.089621
61.624641
23.119814
53.386032
43.100899
19.493201
22.598410
56.558197
27.504850
54.175526
188.247742
72.408741
138.914017
70.309635
304.394623
95.931236
56.519196
57.086781
147.057541
151.638794
164.448761
52.596474
30.351109
43.514030
11.954641
79.233574
57.676579
27.347551
24.457352
21.987142
17.545723
16.306317
41.223257
28.007399
57.365440
35.417093
32.276251
175.678879
59.313313
69.291256
82.749878
206.291183
172.477234
247.179718
425.037018
163.895416
252.341751
77.528023
65.365253
81.693329
263.497879
150.918243
165.145859
109.980560
248.542221
137.949318
290.054535
64.481815
34.260542
58.497169
159.908249
80.121185
83.106079
192.965073
103.699890
180.367538
117.099281
120.536911
45.991428
137.024681
41.831575
68.855923
50.482136
62.324409
145.495316
46.638374
266.902588
213.811523
153.039703
175.940201
48.902504
96.917427
182.936127
140.881668
85.359062
39.243544
44.470654
86.628632
122.177010
41.011873
164.864960
130.703308
386.707214
116.882713
137.995529
119.288857
118.306953
143.764343
203.042068
174.647385
192.914413
272.501648
120.439514
229.732773
267.407928
581.893494
110.911003
155.654053
129.782509
81.939934
61.370281
122.870308
87.599701
56.649181
70.287167
74.268471
68.209835
137.831383
296.492218
150.481293
115.628868
132.563477
89.720848
127.069923
54.081661
109.171303
187.493240
51.932999
111.689316
89.708870
118.465668
84.705200
99.283394
51.236816
48.000984
97.590179
38.050997
131.268066
189.537689
53.962086
44.270840
50.821560
58.518799
59.183105
43.380508
45.777012
219.576111
129.274048
64.327774
125.083046
73.002342
88.515182
49.180256
142.343979
108.325264
56.678696
119.682999
33.494120
14.957662
168.080902
102.076294
111.649384
165.080933
44.950226
136.773659
30.918404
49.673203
47.343979
24.164262
22.921865
22.882419
39.826071
53.077446
60.157043
125.565460
13.759255
23.964581
18.085990
20.817738
25.435193
34.371643
26.247673
54.782074
32.193712
17.438801
39.907866
25.884214
20.174426
28.652775
39.202585
47.949448
28.263685
37.881021
18.519733
38.055191
31.340544
48.478657
31.009310
55.481331
31.124527
22.305364
49.843548
19.589107
40.929195
36.485064
25.374594
68.763504
58.919479
41.166315
66.140030
54.906670
82.321541
63.074402
26.955505
105.294762
211.756348
210.238266
123.056572
283.925690
96.497787
324.054565
316.765991
161.145508
224.238358
380.000580
79.745644
93.244514
77.231232
82.437538
141.177078
90.544167
132.738319
147.195892
133.096954
196.583923
120.252464
65.409096
166.669327
60.572517
92.876450
60.604214
110.749489
114.218086
95.628754
282.787537
287.843201
235.100281
312.106781
32.885563
45.870548
57.110653
57.630432
61.903603
60.022373
39.234795
51.671406
28.242571
43.937366
27.028721
27.363573
76.080521
30.065777
49.844269
22.600448
20.040202
20.690643
22.089380
21.653031
70.559284
22.476983
29.686905
37.568140
37.000965
27.707384
30.029547
28.790998
17.172120
41.820774
36.591202
42.764923
40.560236
26.131353
59.465843
40.288826
38.722204
53.153931
33.870508
63.687889
56.054653
34.504974
127.586800
47.275059
29.813307
15.134779
70.078445
45.785118
46.394199
47.463909
49.745220
50.114964
30.384562
32.979744
21.984798
15.956692
26.966564
24.258397
36.415949
33.323851
97.494263
230.372101
148.148285
61.315887
167.106628
150.236847
170.861618
81.785805
71.230091
56.702271
37.049786
472.787720
246.928802
153.760391
243.976685
348.111664
169.301651
100.008995
210.789780
186.287186
249.574036
341.128418
446.936951
533.410583
361.628174
307.771698
255.947235
169.240326
123.367065
193.957275
121.465981
305.523956
42.100391
157.145874
213.388458
378.269867
186.472031
85.957222
50.845657
51.753815
40.435963
51.300205
71.731464
101.068321
62.592560
19.537867
32.705666
20.653773
15.348373

