# vtk DataFile Version 3.1
Tetrahedral Mesh Visualization
ASCII
DATASET UNSTRUCTURED_GRID

POINTS 277 FLOAT
0.000000 1.378113 1.754166
0.000000 0.000000 0.000000
2.001402 -0.001596 0.023796
0.000000 1.666667 0.000000
2.423348 0.001388 1.760504
0.000000 0.000000 1.666667
1.692600 2.466898 0.013805
2.999978 2.462247 2.344726
3.994431 5.010132 0.029425
3.075913 5.010138 1.673724
5.203311 5.009224 1.645073
3.481495 3.184557 0.019884
5.394145 3.312955 0.028368
5.983924 5.009429 0.027293
7.348316 3.344828 -0.002828
6.961588 5.008619 1.339105
9.246728 2.176919 1.998759
8.688588 4.998357 1.589339
9.338605 3.336761 -0.027728
10.659533 4.994513 1.622538
11.350138 3.333998 -0.022523
11.110818 1.865918 1.525623
10.671048 1.674719 -0.029284
12.686596 1.673049 -0.006732
13.357954 3.332675 0.012844
12.976981 1.874659 1.493593
14.688869 1.663087 0.031946
14.013661 0.003244 0.009858
15.476541 2.138222 1.732143
15.342121 -0.000016 1.689050
13.333666 -0.001311 1.661773
17.304218 -0.002438 1.677556
16.698284 1.666653 0.064463
18.029156 0.008704 0.077106
16.026957 -0.001390 0.049846
18.707235 1.675585 0.085719
19.021896 -0.000297 1.408760
20.034454 0.000708 0.104602
16.725615 -0.005998 3.361335
18.994196 -0.005094 3.193611
17.697592 2.686890 3.007356
17.964441 -0.008958 5.071827
16.652569 1.665577 5.055936
15.964704 -0.000106 5.042124
14.671507 -0.008509 3.345229
15.769180 2.889025 3.397438
18.690939 1.690757 5.071325
17.281958 3.345221 5.058200
19.242357 3.385302 5.083885
19.312996 5.001897 3.421005
20.948519 3.667568 5.123245
21.309036 4.999634 3.468602
19.628159 2.497352 2.441105
20.673870 5.006970 1.783469
21.908716 2.513407 2.614434
22.669165 5.004770 1.824854
23.322334 3.385053 0.171904
23.967087 2.451153 2.480396
25.037073 3.675562 0.200827
25.036076 1.892452 0.196121
25.990999 2.501731 1.950170
27.308495 1.693255 0.243209
26.749729 3.383731 0.232786
29.281435 0.000540 1.893007
28.044582 -0.007412 0.258533
29.355240 1.669296 0.280959
31.004084 0.005482 1.635592
32.044830 0.003064 0.341246
31.356022 1.667577 0.322816
30.045027 -0.000767 0.297582
33.320992 1.660741 0.366435
34.044643 0.010392 0.375467
32.695042 0.002553 1.966731
34.606365 -0.002810 2.079099
34.984600 2.404736 2.936954
36.516598 0.000171 2.255146
35.112038 0.000043 3.789976
36.802654 -0.002468 3.983091
38.229778 2.520583 5.457354
37.691166 2.167052 2.634156
38.302486 0.006803 3.005725
38.040970 -0.006228 0.471608
37.934868 0.001198 5.463115
35.930454 -0.002099 5.421175
36.494488 1.739915 5.427110
34.868744 1.331972 5.399510
34.785366 3.128804 5.401459
36.690449 3.472025 5.436931
33.935200 5.002729 5.383214
32.630054 3.299327 5.358117
33.246208 4.996191 3.720150
31.932041 4.998839 5.338745
35.127003 4.998237 3.806579
32.198166 2.600619 2.770205
34.601265 5.008529 2.097996
32.680069 3.338700 0.357910
33.180725 0.002019 3.677999
30.958982 0.002442 3.425191
31.253626 1.652990 5.322656
33.186604 1.605788 5.364505
30.609118 3.324882 5.310726
28.606379 3.330940 5.274359
29.270786 1.664637 5.295261
30.009325 2.502443 2.774727
27.953588 2.491922 2.739165
26.604076 3.338753 5.232893
27.267187 1.671040 5.245115
24.669382 4.996274 1.858311
22.039167 5.005441 0.145358
21.369297 3.345670 0.128616
22.768185 1.694234 0.153752
20.039970 5.010355 0.106883
19.370726 3.346042 0.089747
18.671124 5.008405 1.745543
18.031979 5.007852 0.069676
17.364475 3.343842 0.062843
16.020624 4.998554 0.053090
16.671604 5.006236 1.722806
14.674026 4.998694 1.702056
13.689990 2.957264 3.281512
12.973074 1.324910 4.991584
12.656481 -0.004499 3.316949
13.966188 0.002718 5.008453
11.267110 1.610978 4.974447
10.653412 -0.003274 3.298354
11.981738 -0.009098 4.978913
9.999220 -0.009954 4.971425
11.324833 0.003943 1.630734
9.302576 0.006687 1.635296
9.993055 0.013999 -0.035835
8.670658 1.675566 -0.024669
7.984259 5.013919 -0.005659
9.997888 4.996267 -0.030926
11.215279 2.641546 3.253742
9.256323 4.997157 3.273138
10.740562 3.313315 4.975023
11.302030 5.003305 3.294079
9.999995 5.008624 4.968299
11.981768 5.019440 4.971158
8.016774 5.001200 4.996290
8.752376 3.386830 4.979644
6.969172 5.006326 3.128544
5.368726 3.369994 5.026670
6.011414 4.999750 5.026629
7.044255 3.683691 5.009630
5.143472 2.377654 3.166584
4.622698 5.000644 3.330150
3.488096 3.193319 5.029021
4.003674 4.994724 5.039824
2.370388 5.002694 3.301604
4.835775 1.611268 0.032062
4.908070 0.002845 1.913552
6.714863 1.667322 0.002334
7.007935 2.571211 2.198832
8.653812 -0.000647 3.320471
17.321901 5.010441 3.393265
15.323033 5.008742 3.373147
15.975465 5.011486 5.045497
14.687275 1.611084 5.021298
15.235186 3.311982 5.033893
12.007951 0.014861 -0.024404
15.361288 3.325674 0.045894
14.027292 4.996246 0.025537
12.666802 4.997174 1.661716
13.316751 5.003510 3.333455
7.234652 0.012698 1.696950
6.673055 0.007658 3.398869
4.917765 1.657575 5.029463
6.008804 0.013653 5.026155
4.915300 0.009804 3.697926
4.001548 0.007563 5.032327
7.062541 1.893324 5.006577
8.011563 -0.001092 4.993173
9.281156 1.687838 4.978734
20.945589 1.873602 5.114091
22.653257 3.388417 5.160930
23.945520 4.999918 5.183711
24.608902 3.343951 5.193625
23.306652 5.000306 3.505519
27.306961 4.998192 3.579276
26.673952 4.994775 1.897933
25.307600 5.000793 3.536361
35.203762 1.612351 0.410274
36.883923 1.459087 0.438300
39.964596 3.243651 4.112487
39.996643 1.628806 3.091137
38.293324 5.004420 2.999210
39.998283 3.245665 2.385042
39.976143 4.991275 3.839750
37.935631 4.999356 5.461967
39.942806 4.982663 5.509317
39.927322 3.331542 5.498734
39.936775 1.674382 5.502593
39.981743 0.012419 3.845392
40.017067 -0.001276 2.172598
40.037224 -0.010835 0.507970
40.036083 1.657655 0.491564
40.041973 3.339258 0.501377
38.349144 2.466420 0.454808
38.045818 5.013628 0.474727
40.002731 5.011427 2.188544
36.802307 4.997350 3.990073
36.516109 5.006542 2.261307
36.553940 3.188193 0.433200
36.048832 5.017927 0.436972
34.640076 3.319438 0.399869
34.046467 5.011199 0.389089
30.694229 3.333131 0.309619
30.038584 4.992446 0.290715
32.043053 5.004548 0.341500
30.660963 4.997967 1.974419
28.701710 3.337491 0.269381
26.697180 0.005863 3.614642
27.274750 0.001582 1.932085
25.257854 1.674744 5.205472
23.946823 -0.000621 5.170407
25.937538 0.000613 5.212795
24.969252 0.007178 3.864842
23.207973 1.696775 5.169401
23.248384 0.004265 3.544265
21.245363 -0.007254 3.428932
21.948153 -0.013107 5.134682
19.952820 -0.019398 5.101438
17.972580 5.008254 5.069443
19.960047 4.991786 5.104863
22.745661 0.001068 1.838998
25.003460 0.005769 2.073896
24.036854 0.005313 0.166660
26.042889 0.007510 0.213119
26.040016 4.994858 0.225136
25.674841 2.239407 3.700839
28.671516 4.996666 1.941359
28.042755 4.996884 0.263162
25.942863 5.004741 5.215189
12.018024 4.996507 -0.011817
12.978418 3.121639 4.993752
13.974535 5.021161 5.007863
21.946167 4.992864 5.153755
28.710722 0.005661 3.583359
29.302137 5.002585 3.624168
29.945969 5.001304 5.299655
31.285740 4.998014 3.656260
31.935816 -0.002539 5.335470
33.932034 -0.000044 5.384632
35.937466 4.993166 5.429039
32.643925 5.006099 2.027556
20.723421 1.673439 0.111399
20.741577 -0.000062 1.724959
24.034950 4.986816 0.177421
27.941273 4.993173 5.265293
40.051598 5.008685 0.530345
3.186882 1.472806 5.026161
0.000000 3.103853 1.750106
0.000000 5.000000 1.666667
0.000000 3.333333 0.000000
1.999872 5.000179 0.018198
0.000000 5.000000 0.000000
0.000000 5.000000 3.333333
0.000000 0.000000 3.333333
1.699594 2.470531 5.011619
3.039850 0.010323 3.417820
1.998670 0.009018 5.022043
0.000000 2.403264 3.370902
0.000000 1.666667 5.000000
0.000000 3.333333 5.000000
0.000000 0.000000 5.000000
27.940422 0.007223 5.257405
29.940161 -0.006089 5.298047
36.040562 0.004515 0.429050
39.933422 0.008555 5.513851
7.978853 0.019361 -0.016213
1.998210 5.001252 5.018855
3.161839 1.453100 0.029229
4.001208 -0.002067 0.034652
22.036919 -0.006979 0.136218
0.000000 5.000000 5.000000
5.988967 0.007746 0.019549

CELLS 734 3670
4 0 1 2 3
4 0 4 2 5
4 0 3 2 6
4 4 6 0 2
4 4 6 7 0
4 8 9 10 11
4 12 13 14 15
4 16 17 14 18
4 19 20 18 21
4 20 22 21 23
4 24 25 26 23
4 25 27 26 23
4 26 28 29 30
4 28 29 31 32
4 33 34 32 31
4 31 33 35 32
4 31 33 36 35
4 33 37 36 35
4 38 39 40 31
4 41 42 43 38
4 44 42 45 38
4 44 42 38 43
4 46 38 42 41
4 46 47 40 48
4 49 50 51 52
4 53 54 51 55
4 56 54 55 57
4 56 58 59 57
4 60 59 61 62
4 63 61 64 65
4 66 67 68 69
4 67 70 71 72
4 73 74 75 76
4 74 77 75 76
4 77 78 79 80
4 79 81 75 80
4 77 78 80 82
4 77 83 76 84
4 83 85 76 84
4 85 86 74 84
4 74 86 87 84
4 88 89 86 90
4 91 89 88 90
4 86 88 90 92
4 90 86 92 74
4 86 89 74 90
4 93 94 95 74
4 70 74 72 93
4 70 73 71 72
4 74 96 73 72
4 66 97 93 72
4 96 97 72 93
4 96 98 97 93
4 85 96 74 99
4 96 98 93 99
4 98 89 100 93
4 101 102 100 103
4 104 105 101 106
4 107 58 57 60
4 58 107 57 56
4 53 108 109 55
4 56 110 109 54
4 53 111 109 108
4 112 53 109 52
4 111 112 113 53
4 112 111 113 114
4 115 116 114 117
4 40 28 115 117
4 45 117 118 28
4 119 28 25 44
4 120 44 121 122
4 123 121 124 125
4 125 123 126 124
4 127 128 21 124
4 16 129 128 21
4 16 18 14 130
4 16 17 18 19
4 131 17 132 18
4 16 19 18 21
4 133 16 19 134
4 135 134 133 136
4 135 137 136 138
4 137 134 139 140
4 141 142 143 144
4 145 146 147 7
4 142 148 147 146
4 7 146 147 149
4 10 7 9 146
4 145 150 7 151
4 152 151 150 153
4 16 128 154 124
4 124 21 121 133
4 25 28 30 44
4 28 38 45 40
4 45 47 40 42
4 155 45 156 47
4 157 156 47 155
4 155 45 40 117
4 45 42 158 159
4 44 42 43 158
4 119 45 158 159
4 120 44 158 119
4 25 127 21 121
4 25 27 160 30
4 127 25 160 30
4 25 127 121 30
4 44 25 121 30
4 28 30 44 29
4 119 28 44 45
4 119 28 118 25
4 28 24 26 161
4 26 32 29 28
4 28 31 29 38
4 46 38 41 39
4 46 38 39 40
4 28 117 40 45
4 118 28 117 161
4 162 24 118 161
4 118 119 163 164
4 136 119 164 163
4 25 133 21 163
4 128 16 21 124
4 165 166 153 154
4 166 167 168 169
4 167 168 169 170
4 171 168 172 166
4 124 173 126 154
4 123 121 133 124
4 120 125 122 121
4 122 158 44 43
4 47 46 40 42
4 52 50 174 48
4 175 50 174 54
4 176 175 177 178
4 179 60 180 181
4 64 69 63 65
4 68 72 67 66
4 70 73 182 71
4 74 79 183 75
4 184 78 185 79
4 79 184 186 187
4 186 184 188 187
4 184 189 190 191
4 184 78 79 186
4 78 189 184 191
4 189 184 190 188
4 184 78 191 192
4 184 78 192 185
4 192 78 80 185
4 193 80 194 185
4 195 81 196 194
4 81 79 196 194
4 197 187 196 198
4 187 79 185 196
4 79 184 187 185
4 197 199 187 198
4 199 197 187 200
4 199 200 187 186
4 78 201 79 186
4 189 201 87 78
4 202 201 79 74
4 201 74 92 87
4 201 202 92 74
4 201 202 79 186
4 202 203 74 79
4 202 198 203 79
4 204 202 199 203
4 202 203 205 74
4 202 204 205 203
4 182 203 74 205
4 74 203 183 79
4 79 203 183 198
4 79 81 198 183
4 81 79 198 196
4 187 79 196 198
4 202 198 79 186
4 202 204 94 205
4 94 95 205 206
4 207 208 209 210
4 208 207 211 210
4 104 103 211 65
4 104 60 212 213
4 214 215 216 217
4 218 219 220 221
4 222 174 220 221
4 46 39 222 174
4 52 46 40 48
4 40 49 52 48
4 53 49 52 113
4 40 49 155 113
4 155 45 47 40
4 157 47 223 155
4 49 223 224 48
4 52 50 51 54
4 175 54 57 178
4 218 175 54 57
4 225 219 54 57
4 218 175 57 177
4 57 217 219 218
4 219 225 226 57
4 225 227 226 57
4 59 110 57 227
4 59 60 61 228
4 61 60 213 228
4 64 61 213 228
4 63 61 213 64
4 61 104 211 65
4 180 60 104 62
4 58 229 62 180
4 58 60 180 62
4 60 61 104 62
4 60 226 230 212
4 226 60 213 212
4 60 104 212 230
4 179 60 230 104
4 104 211 231 62
4 180 229 62 232
4 180 232 62 231
4 179 60 104 180
4 233 181 105 179
4 181 105 179 230
4 105 214 106 230
4 105 214 230 177
4 215 214 218 217
4 215 217 218 219
4 218 215 219 221
4 218 175 174 54
4 39 52 220 174
4 39 46 52 174
4 115 52 112 35
4 28 115 117 161
4 162 118 116 161
4 24 162 118 163
4 20 19 234 163
4 25 133 163 119
4 120 119 158 235
4 236 119 235 159
4 235 119 158 159
4 119 235 133 136
4 138 235 236 164
4 45 47 42 159
4 46 38 40 42
4 49 50 52 48
4 237 175 176 178
4 181 233 177 176
4 180 179 231 104
4 207 103 65 211
4 207 103 68 65
4 65 66 103 68
4 103 66 97 93
4 66 103 97 63
4 213 104 63 238
4 238 97 103 63
4 104 102 103 238
4 104 106 212 230
4 214 212 106 230
4 214 212 216 106
4 214 212 217 216
4 214 212 230 217
4 226 217 230 212
4 226 60 230 57
4 181 60 57 230
4 179 105 104 230
4 179 105 101 104
4 104 239 103 101
4 239 101 240 100
4 91 241 240 100
4 241 239 240 100
4 239 241 103 100
4 103 210 93 241
4 103 207 93 210
4 210 103 231 239
4 103 239 104 231
4 103 104 63 65
4 65 66 63 103
4 65 66 68 69
4 68 72 66 93
4 96 98 242 97
4 85 96 99 243
4 85 86 99 74
4 86 89 99 74
4 88 86 244 92
4 74 86 92 87
4 201 244 87 92
4 244 86 87 92
4 90 74 92 94
4 94 95 206 245
4 95 209 206 245
4 245 207 95 209
4 208 232 231 211
4 180 104 231 62
4 181 60 107 57
4 54 175 51 178
4 50 52 174 54
4 246 36 52 247
4 246 36 37 35
4 52 31 36 35
4 31 39 52 36
4 39 46 222 41
4 39 222 174 220
4 174 218 220 221
4 218 219 54 220
4 225 219 220 54
4 56 110 54 57
4 110 56 59 57
4 60 59 226 228
4 60 226 213 228
4 57 217 230 226
4 214 217 230 218
4 218 57 230 177
4 181 105 230 177
4 179 60 181 230
4 58 107 180 60
4 229 107 58 248
4 229 107 180 58
4 60 58 59 62
4 58 107 56 248
4 108 56 109 55
4 108 56 55 248
4 107 56 55 57
4 107 181 57 178
4 57 181 177 178
4 181 176 177 178
4 233 181 177 105
4 249 239 101 240
4 91 89 241 100
4 89 91 241 90
4 210 245 93 241
4 245 241 90 93
4 93 94 90 245
4 74 202 92 94
4 205 204 94 206
4 202 198 199 203
4 202 198 186 199
4 199 197 200 250
4 199 186 187 198
4 200 186 188 187
4 184 189 186 188
4 201 189 87 244
4 189 201 78 186
4 201 78 79 87
4 189 78 184 186
4 186 79 187 198
4 74 201 79 87
4 74 79 84 87
4 79 78 84 87
4 77 78 84 79
4 74 77 84 79
4 74 85 84 76
4 83 243 76 85
4 85 96 243 76
4 73 96 74 76
4 96 93 74 99
4 89 93 99 74
4 93 94 74 90
4 93 94 245 95
4 207 95 68 93
4 95 70 68 93
4 95 70 74 205
4 74 70 182 205
4 94 95 74 205
4 241 89 90 93
4 104 179 231 239
4 181 60 180 107
4 107 57 55 178
4 57 54 55 178
4 53 49 51 52
4 40 49 113 52
4 155 47 223 48
4 45 47 159 156
4 119 156 45 159
4 120 44 119 121
4 16 173 124 154
4 166 167 169 145
4 145 7 147 251
4 9 7 252 149
4 253 254 252 255
4 256 253 255 254
4 6 9 252 255
4 253 257 149 252
4 7 258 259 260
4 260 261 251 170
4 169 260 251 170
4 169 251 167 170
4 166 167 145 171
4 16 22 18 130
4 25 24 20 23
4 24 25 118 28
4 119 156 118 45
4 119 28 45 118
4 119 45 44 158
4 44 38 28 29
4 25 28 26 30
4 25 24 26 28
4 24 20 234 163
4 162 24 234 163
4 163 119 118 25
4 235 135 133 136
4 135 134 140 133
4 145 141 153 144
4 145 260 169 151
4 0 258 4 5
4 259 258 262 263
4 264 259 262 263
4 258 7 262 0
4 260 258 259 261
4 258 261 263 259
4 261 258 263 265
4 261 260 251 259
4 167 251 169 145
4 145 260 251 169
4 166 167 171 168
4 16 171 153 140
4 137 135 136 134
4 138 135 235 136
4 235 138 136 164
4 236 119 156 164
4 157 156 159 47
4 155 47 48 40
4 40 49 48 155
4 46 52 174 48
4 247 225 220 54
4 110 225 57 227
4 60 59 57 226
4 104 61 211 62
4 232 211 62 231
4 103 104 211 231
4 239 210 103 241
4 241 93 103 100
4 68 72 93 70
4 103 207 68 93
4 207 103 211 210
4 210 208 231 211
4 103 210 231 211
4 245 207 210 93
4 245 207 209 210
4 245 207 93 95
4 70 95 74 93
4 70 73 74 182
4 182 203 183 74
4 202 74 205 94
4 93 89 90 74
4 89 241 100 93
4 93 98 103 100
4 101 104 102 103
4 104 101 102 106
4 106 238 104 212
4 266 216 212 106
4 106 238 212 266
4 106 238 102 104
4 267 266 238 102
4 97 102 267 238
4 106 238 266 102
4 97 102 238 103
4 97 102 103 98
4 97 102 98 267
4 97 98 242 267
4 96 98 99 242
4 89 98 99 93
4 239 101 100 103
4 104 179 239 101
4 179 249 239 101
4 105 179 101 249
4 233 105 249 179
4 177 181 57 230
4 175 57 177 178
4 175 237 51 178
4 55 54 51 178
4 112 111 109 53
4 112 53 52 113
4 117 115 113 114
4 116 118 117 161
4 115 116 117 161
4 28 115 161 32
4 29 32 26 34
4 26 30 29 27
4 34 26 29 27
4 29 34 31 32
4 31 115 32 35
4 31 115 28 32
4 246 112 52 35
4 246 247 52 54
4 247 110 225 54
4 59 227 57 226
4 213 104 238 212
4 104 103 63 238
4 97 98 103 93
4 70 73 72 74
4 71 182 268 73
4 182 75 268 73
4 182 75 183 268
4 183 81 268 75
4 182 75 74 183
4 79 81 183 75
4 79 81 80 194
4 78 192 80 82
4 192 193 80 82
4 269 193 192 82
4 193 192 80 185
4 80 79 194 185
4 77 74 75 79
4 85 96 76 74
4 96 243 242 99
4 98 102 103 100
4 104 105 106 230
4 214 218 230 177
4 50 175 51 54
4 49 155 223 48
4 157 156 236 159
4 236 119 159 156
4 235 119 164 136
4 236 119 164 235
4 133 235 120 123
4 120 235 133 119
4 135 123 235 133
4 124 173 123 126
4 173 172 126 154
4 166 171 154 172
4 172 171 154 173
4 171 16 154 173
4 171 166 154 153
4 16 171 154 153
4 124 173 16 133
4 124 173 133 123
4 25 133 119 121
4 19 16 133 21
4 163 19 133 21
4 134 19 133 136
4 133 119 136 163
4 133 19 163 136
4 132 20 18 19
4 20 132 234 19
4 20 19 163 21
4 22 20 21 18
4 16 22 21 18
4 128 129 127 21
4 160 129 21 127
4 160 21 25 127
4 25 20 21 23
4 25 27 23 160
4 25 27 30 26
4 23 22 21 160
4 16 129 21 22
4 128 130 165 270
4 128 130 270 129
4 128 130 16 165
4 16 165 153 154
4 17 16 14 153
4 131 17 18 14
4 17 141 153 15
4 12 10 15 153
4 15 17 14 153
4 153 16 14 130
4 16 129 22 130
4 128 130 129 16
4 16 128 165 154
4 151 166 153 165
4 260 145 7 151
4 9 6 252 7
4 7 262 252 149
4 260 259 7 251
4 7 259 147 251
4 264 259 271 149
4 259 7 147 149
4 146 148 147 149
4 271 259 147 149
4 148 271 147 149
4 146 142 143 141
4 144 141 140 139
4 141 134 140 139
4 143 141 144 139
4 142 145 141 146
4 145 142 141 144
4 148 142 143 146
4 145 7 10 146
4 145 150 151 153
4 151 272 150 7
4 151 272 273 150
4 151 272 4 273
4 4 272 2 273
4 151 272 7 4
4 4 260 7 151
4 166 145 151 153
4 166 145 169 151
4 171 166 153 145
4 133 16 140 173
4 124 16 21 133
4 25 21 160 23
4 21 129 160 22
4 121 21 124 127
4 121 120 133 119
4 123 121 125 120
4 123 121 120 133
4 25 133 121 21
4 25 20 163 21
4 118 24 28 161
4 26 28 161 32
4 40 115 28 31
4 115 52 113 112
4 246 112 109 52
4 246 52 109 54
4 56 54 109 55
4 56 107 55 248
4 58 60 59 57
4 63 61 65 104
4 68 72 70 67
4 182 75 73 74
4 77 79 75 80
4 196 79 185 194
4 79 78 185 80
4 77 78 82 84
4 83 77 82 84
4 77 74 84 76
4 96 74 93 72
4 103 66 93 68
4 65 66 69 63
4 63 61 104 213
4 61 60 104 213
4 59 227 226 228
4 274 110 227 225
4 246 36 247 37
4 246 36 35 52
4 52 115 40 31
4 28 31 38 40
4 44 42 158 45
4 120 44 122 158
4 135 133 140 173
4 171 16 173 140
4 171 144 153 140
4 141 144 140 153
4 10 141 15 153
4 10 12 15 13
4 10 8 12 13
4 8 10 12 11
4 8 9 11 255
4 9 253 149 252
4 257 262 149 252
4 262 259 149 7
4 258 7 4 260
4 259 258 7 262
4 262 0 7 252
4 0 6 7 252
4 254 6 252 255
4 0 3 6 252
4 6 3 254 252
4 272 6 11 7
4 4 6 272 7
4 4 6 2 272
4 9 6 11 255
4 9 253 252 255
4 262 264 257 149
4 257 264 275 271
4 259 264 262 149
4 257 264 271 149
4 9 146 7 149
4 10 7 11 9
4 7 12 10 11
4 145 150 153 12
4 12 145 10 153
4 145 146 10 141
4 145 142 147 146
4 171 145 153 144
4 171 142 145 144
4 142 171 145 167
4 142 145 147 167
4 167 145 147 251
4 145 260 7 251
4 145 150 12 7
4 12 145 7 10
4 12 152 153 14
4 152 153 14 130
4 152 151 153 165
4 165 152 276 270
4 152 151 165 276
4 165 152 270 130
4 152 151 276 150
4 276 150 151 273
4 272 7 11 150
4 7 12 11 150
4 153 150 152 12
4 165 16 153 130
4 165 152 130 153
4 15 12 153 14
4 13 131 14 15
4 17 131 15 14
4 17 132 18 19
4 25 24 163 20
4 25 24 118 163
4 119 156 164 118
4 118 117 45 156
4 155 45 117 156
4 113 40 117 155
4 50 49 224 48
4 49 50 224 51
4 50 237 224 51
4 237 50 175 51
4 52 54 220 174
4 52 247 220 54
4 39 247 220 52
4 39 247 52 36
4 115 52 35 31
4 40 115 52 113
4 40 115 113 117
4 115 112 113 114
4 53 52 51 54
4 54 53 109 55
4 52 53 109 54
4 110 246 109 54
4 247 110 54 246
4 247 110 274 225
4 246 274 37 247
4 247 110 246 274
4 110 225 54 57
4 57 217 226 219
4 57 217 218 230
4 219 218 54 57
4 218 54 174 220
4 46 39 52 40
4 39 31 52 40
4 38 42 45 40
4 28 38 44 45
4 121 25 44 119
4 123 135 173 133
4 134 153 140 16
4 134 16 140 133
4 137 135 134 140
4 134 153 141 140
4 134 153 16 17
4 16 17 19 134
4 134 153 17 141
4 153 145 10 141
4 6 9 11 7
4 258 7 0 4
4 1 0 2 5

CELL_TYPES 734
10
10
10
10
10
10
10
10
10
10
10
10
10
10
10
10
10
10
10
10
10
10
10
10
10
10
10
10
10
10
10
10
10
10
10
10
10
10
10
10
10
10
10
10
10
10
10
10
10
10
10
10
10
10
10
10
10
10
10
10
10
10
10
10
10
10
10
10
10
10
10
10
10
10
10
10
10
10
10
10
10
10
10
10
10
10
10
10
10
10
10
10
10
10
10
10
10
10
10
10
10
10
10
10
10
10
10
10
10
10
10
10
10
10
10
10
10
10
10
10
10
10
10
10
10
10
10
10
10
10
10
10
10
10
10
10
10
10
10
10
10
10
10
10
10
10
10
10
10
10
10
10
10
10
10
10
10
10
10
10
10
10
10
10
10
10
10
10
10
10
10
10
10
10
10
10
10
10
10
10
10
10
10
10
10
10
10
10
10
10
10
10
10
10
10
10
10
10
10
10
10
10
10
10
10
10
10
10
10
10
10
10
10
10
10
10
10
10
10
10
10
10
10
10
10
10
10
10
10
10
10
10
10
10
10
10
10
10
10
10
10
10
10
10
10
10
10
10
10
10
10
10
10
10
10
10
10
10
10
10
10
10
10
10
10
10
10
10
10
10
10
10
10
10
10
10
10
10
10
10
10
10
10
10
10
10
10
10
10
10
10
10
10
10
10
10
10
10
10
10
10
10
10
10
10
10
10
10
10
10
10
10
10
10
10
10
10
10
10
10
10
10
10
10
10
10
10
10
10
10
10
10
10
10
10
10
10
10
10
10
10
10
10
10
10
10
10
10
10
10
10
10
10
10
10
10
10
10
10
10
10
10
10
10
10
10
10
10
10
10
10
10
10
10
10
10
10
10
10
10
10
10
10
10
10
10
10
10
10
10
10
10
10
10
10
10
10
10
10
10
10
10
10
10
10
10
10
10
10
10
10
10
10
10
10
10
10
10
10
10
10
10
10
10
10
10
10
10
10
10
10
10
10
10
10
10
10
10
10
10
10
10
10
10
10
10
10
10
10
10
10
10
10
10
10
10
10
10
10
10
10
10
10
10
10
10
10
10
10
10
10
10
10
10
10
10
10
10
10
10
10
10
10
10
10
10
10
10
10
10
10
10
10
10
10
10
10
10
10
10
10
10
10
10
10
10
10
10
10
10
10
10
10
10
10
10
10
10
10
10
10
10
10
10
10
10
10
10
10
10
10
10
10
10
10
10
10
10
10
10
10
10
10
10
10
10
10
10
10
10
10
10
10
10
10
10
10
10
10
10
10
10
10
10
10
10
10
10
10
10
10
10
10
10
10
10
10
10
10
10
10
10
10
10
10
10
10
10
10
10
10
10
10
10
10
10
10
10
10
10
10
10
10
10
10
10
10
10
10
10
10
10
10
10
10
10
10
10
10
10
10
10
10
10
10
10
10
10
10
10
10
10
10
10
10
10
10
10
10
10
10
10
10
10
10
10
10
10
10
10
10
10
10
10
10
10
10
10
10
10
10
10
10
10
10
10
10
10
10
10
10
10
10
10
10
10
10
10
10
10
10
10
10
10
10
10
10
10
10
10
10
10
10
10
10
10
10
10
10
10
10
10
10
10
10
10
10
10
10
10
10
10
10
10
10
10
10
10
10
10
10
10
10
10
10
10
10
10
10
10
10
10
10
10

CELL_DATA 734
SCALARS potentialEnergy FLOAT 1
LOOKUP_TABLE default
106.110588
86.453552
83.963600
105.903366
141.666748
61.457386
55.898895
231.997635
373.698730
263.300400
80.646996
75.014030
120.549728
69.993118
42.020969
57.153217
31.623188
74.277367
68.081341
60.314056
151.609116
55.059784
94.559135
126.949020
90.338768
43.641407
82.707405
76.652756
238.678955
40.584518
57.842659
67.376785
26.123129
23.934014
203.064651
109.796959
90.541389
34.024302
101.731094
59.512787
51.155491
89.024994
31.535736
52.995392
24.258204
58.257965
43.537399
51.668663
49.348862
40.062351
43.073051
24.877325
28.576868
35.607351
38.467220
41.831377
61.956284
31.156982
31.578388
84.512657
40.286428
83.143021
31.798985
83.830933
25.316227
99.659996
110.534355
112.871956
68.953831
185.067963
51.579723
60.782692
179.284286
26.832838
66.439651
166.369400
95.545555
190.523315
158.429413
49.066753
132.471619
193.174561
274.879822
40.726585
57.716171
78.093727
94.871292
117.492996
92.079559
231.633957
178.488953
313.915131
79.579704
67.321350
69.964008
59.932648
51.723072
73.765221
67.879009
75.225197
93.412987
135.457703
72.113041
95.698143
83.848083
77.026108
64.227894
114.050262
249.465622
166.083817
50.394493
101.833977
70.498604
72.822266
126.683281
83.714142
142.082230
89.512474
141.627991
122.123314
169.920288
46.098267
224.836502
38.496347
72.551395
141.038803
70.295807
161.862808
155.246674
55.279968
148.085724
66.574375
114.496078
15.141129
19.528026
41.647917
54.512356
33.789505
70.118908
64.216614
84.737488
103.457222
191.352371
142.986679
160.820557
143.706039
90.594551
52.457142
188.754517
60.971523
123.714317
83.596596
217.440277
84.111298
78.292259
189.536209
338.047455
410.139526
108.032677
43.498264
55.273228
25.858321
38.663395
77.221367
72.177322
105.870987
67.236889
65.933765
74.930115
92.952721
60.473980
97.105194
111.017929
115.542107
62.211159
113.277122
42.980423
21.479342
84.013161
36.937193
48.642731
38.709610
46.150871
55.808022
56.390217
146.869186
28.248611
43.786331
36.811092
77.377365
113.564072
23.807389
121.480446
104.927887
78.487083
24.750616
67.447582
19.796493
51.605957
87.307663
59.820641
130.401566
121.434158
83.797012
51.743088
24.298242
28.167641
34.845642
41.907768
85.021225
33.086533
58.591213
65.646847
67.372578
43.847649
61.162090
41.682894
34.382278
37.016607
16.802089
21.336487
19.811376
14.351087
18.260756
19.720639
36.134954
110.887184
224.309372
250.489594
99.892273
118.950233
76.933296
123.864037
115.213608
196.763870
112.555237
187.141891
369.460876
133.503387
199.621368
48.801586
188.945389
135.932549
26.346476
29.201563
15.612978
87.551743
36.793707
56.621300
38.735563
21.542259
60.370831
63.553493
103.693954
45.438194
15.495250
47.837887
15.912190
128.365875
46.429684
82.491272
25.922421
35.758682
22.817528
29.154224
23.899570
126.981735
24.907744
48.648701
20.243558
21.060979
66.015682
51.625652
45.361809
32.915791
24.174437
25.303455
20.954782
31.118587
55.227188
53.156483
55.827904
56.500004
12.310555
34.851305
44.320805
26.230844
35.795534
40.872158
29.366463
32.028826
25.759891
38.676798
93.665405
71.235760
42.193737
120.665283
73.689785
200.965836
111.373123
78.346039
139.840210
82.844070
113.335876
108.633583
97.457214
69.813560
43.174469
38.238628
24.340176
31.635365
29.477060
41.245119
67.444328
43.680450
70.381851
57.712936
55.089603
45.878021
49.384804
42.453388
31.861317
23.752253
14.469324
32.611959
31.179834
20.443846
43.478973
53.565475
83.359673
94.196899
40.140434
171.120682
245.723068
257.227921
207.296127
247.967804
99.197731
34.832701
69.911625
85.008324
38.702164
131.178734
62.912712
51.115971
157.308517
72.378334
139.340240
86.308151
61.458019
41.032185
21.254982
24.536917
56.026302
38.446077
79.950874
39.759684
34.351357
34.850237
113.230408
34.068439
41.040779
25.585869
46.756371
55.030739
18.355796
43.311695
36.850611
77.347702
134.667175
79.606262
125.767548
171.495651
76.068787
48.326267
106.519821
61.864323
53.665985
133.437592
77.843140
261.317123
24.438804
23.480877
35.157244
91.259186
138.908722
145.571442
127.108185
152.983246
234.508652
177.963501
149.419250
119.513382
73.274395
137.016907
128.712425
209.902344
431.851654
104.558418
120.363525
41.543951
109.801437
46.294403
34.993553
72.744667
143.826645
93.085777
94.438080
73.725719
46.569019
58.761787
76.953499
173.590302
86.666191
449.539459
282.291626
167.184280
55.420319
128.174675
92.874573
112.727547
44.742668
71.909657
61.491150
25.272959
26.415953
51.496685
46.512547
110.779373
24.514338
58.349136
30.653175
50.388462
58.458076
79.338287
35.088989
79.971794
35.701397
76.279099
55.611515
29.948971
81.030273
50.210632
24.949702
87.429192
42.233814
60.347015
35.287493
33.674997
106.955627
35.726048
66.462696
34.910574
127.413689
104.722549
66.589935
39.429443
33.363651
53.223801
25.616754
28.794529
29.854538
65.939793
55.325283
37.371708
23.070339
60.712063
15.394104
22.472855
89.488144
53.929127
119.172508
34.327301
106.717644
97.052437
160.774307
181.781876
90.013931
135.082336
129.301689
141.989258
96.543968
125.221016
48.849045
42.985687
52.820637
19.322669
54.460819
78.419952
47.649677
47.079659
123.810272
80.149368
124.989105
50.140926
88.781342
63.506763
90.734993
141.506516
29.237644
73.931679
27.588717
49.282822
72.594452
17.885234
18.212799
97.510628
109.700264
78.236198
181.282028
90.034027
83.297844
186.348022
173.857071
325.121521
110.503525
148.698975
132.369263
101.166382
231.047226
274.702362
187.143845
201.575439
272.860870
175.371826
69.708248
197.774689
153.185242
126.664658
175.048645
214.697418
259.546265
181.038528
305.065796
111.321762
50.122272
153.121140
100.220566
97.555161
78.223984
91.897377
240.321075
87.123207
93.445518
155.192871
226.433014
189.213623
283.305450
133.819122
191.144043
101.148613
289.834076
164.185944
121.174530
118.592232
235.129852
186.608414
67.845493
177.755310
97.648254
109.315903
162.159256
42.977013
105.500275
104.791481
59.557953
93.308609
67.906609
74.334808
106.206696
96.708923
84.685280
47.090912
63.490463
101.367966
120.655212
93.825623
42.755852
30.490379
33.383554
69.325317
72.208241
98.738564
91.015198
80.773933
98.151093
144.812149
124.625885
145.060547
83.720421
168.763229
180.340149
286.241425
165.512634
193.718185
140.255768
78.647415
160.039871
78.900208
90.106018
72.958199
129.311287
32.473644
99.781776
46.550938
35.520863
56.919987
88.551361
76.221176
163.090881
58.028030
65.131115
97.970833
33.834280
25.768415
21.129746
62.143284
36.470158
55.998573
40.102869
31.187119
146.686859
127.978653
58.572605
131.674896
54.356716
83.991692
208.460220
151.444931
172.000366
36.185501
46.619137
73.681961
41.117922
114.765678
118.661736
99.787796
122.526352
156.558182
101.638695
55.574787
113.647346
75.414284
43.377563
42.172848
128.492897
81.071175
63.478642
112.913338
106.834373
101.565643
76.711082
76.845108
59.588665
79.983170
120.205376
93.969543
99.885918
119.331177
90.077515
103.477768
45.783287
43.141788
137.518944
90.546906
52.021114
50.242161
110.797890
142.975616
122.190445
149.920486
250.534851
176.738922
130.719582
138.896820
117.519791
123.860130
63.865711
58.681282
117.714767
218.950714
171.433121
167.678268
71.303928
111.454323
98.981277
238.968628
186.500031
118.024757
82.746849
38.265806
135.371719
117.983864
140.481201
114.604111
35.782866
111.930115
76.235779
116.196815
162.125290
191.516739
31.433849
54.040367
58.617676
47.176735
78.592316
147.028305
87.742241
132.750595
66.750858
39.800285
59.651157
84.773193
86.036308
56.046680
40.915760
146.753296
89.495766
90.348877
99.406548
229.641434
124.505943
121.121315
221.289932
157.144547
98.293251
275.407837
189.447495
61.347397
248.934280
40.314396
132.634209
154.860947
85.506676

