# vtk DataFile Version 3.1
Tetrahedral Mesh Visualization
ASCII
DATASET UNSTRUCTURED_GRID

POINTS 277 FLOAT
0.000000 1.378113 1.754166
0.000000 0.000000 0.000000
1.998402 -0.003095 0.008852
0.000000 1.666667 0.000000
2.419742 -0.005901 1.747273
0.000000 0.000000 1.666667
1.689634 2.468186 0.009274
3.000204 2.447491 2.339310
3.986424 4.995904 0.012335
3.072733 4.999306 1.668334
5.201733 4.986786 1.616075
3.474810 3.174283 0.013122
5.388728 3.292899 0.005696
5.981048 4.984746 -0.006212
7.346932 3.320877 -0.026430
6.960911 4.985128 1.305340
9.249129 2.171512 1.971991
8.687167 4.988771 1.562823
9.335101 3.333216 -0.057067
10.655393 4.998759 1.595596
11.341396 3.340381 -0.059774
11.108747 1.873068 1.492002
10.664048 1.677263 -0.062328
12.674747 1.685265 -0.050593
13.343554 3.352130 -0.036907
12.971796 1.889949 1.449097
14.676198 1.687728 -0.024998
14.003552 0.023198 -0.044809
15.468791 2.155107 1.675584
15.332086 0.012728 1.628686
13.329421 0.012703 1.611040
17.290751 0.006706 1.612698
16.682304 1.684023 0.003673
18.012266 0.013243 0.018737
16.009365 0.019161 -0.015851
18.686493 1.677992 0.041381
19.008554 0.005866 1.358992
20.014938 0.016059 0.052069
16.721863 0.003879 3.296604
18.991503 -0.003311 3.145978
17.698442 2.683751 2.974196
17.970379 -0.003575 5.019610
16.661730 1.659808 5.005777
15.972688 -0.003652 4.981398
14.671018 0.012008 3.287491
15.764523 2.893628 3.350571
18.712811 1.685344 5.041020
17.297443 3.325723 5.030081
19.269409 3.371605 5.063988
19.325607 4.987053 3.416200
20.985876 3.652329 5.090429
21.328716 4.978138 3.438522
19.626194 2.490519 2.418384
20.669638 4.998360 1.767424
21.916265 2.498606 2.564729
22.673393 4.993458 1.782890
23.310902 3.401447 0.104654
23.971485 2.435227 2.405419
25.016775 3.683337 0.113592
25.011189 1.894107 0.100277
25.982807 2.494071 1.844277
27.269541 1.692476 0.103982
26.721806 3.386362 0.117769
29.263199 -0.023574 1.720159
28.005939 -0.006859 0.097843
29.316475 1.659447 0.120447
30.981310 -0.020506 1.436773
32.007050 -0.006918 0.121983
31.315029 1.657759 0.131697
30.008228 -0.009774 0.110919
33.278164 1.649839 0.126103
34.010502 0.005060 0.112021
32.675579 -0.016950 1.730692
34.596558 -0.015290 1.796908
34.982853 2.367777 2.670886
36.515724 -0.017735 1.951639
35.124386 -0.043748 3.501804
36.815689 -0.042492 3.680229
38.270599 2.459506 5.181153
37.693680 2.138621 2.364129
38.301678 -0.032704 2.687234
38.029106 0.007779 0.151126
37.972679 -0.062465 5.145439
35.967182 -0.070941 5.120395
36.527573 1.680212 5.148808
34.905987 1.270935 5.132542
34.822971 3.069211 5.146567
36.725708 3.412282 5.168907
33.988235 4.944273 5.165054
32.674755 3.247117 5.147914
33.265545 4.961884 3.512501
31.989019 4.944829 5.167455
35.144840 4.953290 3.558985
32.198387 2.576214 2.566201
34.594971 4.970445 1.856674
32.641933 3.326503 0.139534
33.195026 -0.034836 3.433004
30.972517 -0.036208 3.224753
31.295246 1.599005 5.127250
33.225559 1.549078 5.133626
30.650087 3.269139 5.141589
28.649660 3.273495 5.123264
29.308153 1.598759 5.109987
30.012329 2.472055 2.606448
27.954958 2.469476 2.593085
26.652607 3.297430 5.120399
27.311058 1.622753 5.109060
24.671705 4.988516 1.792598
22.024277 5.014518 0.115663
21.354301 3.357356 0.096971
22.752552 1.709872 0.087320
20.024420 5.011739 0.092054
19.353043 3.345730 0.066066
18.668325 5.000991 1.736699
18.026676 5.014995 0.060961
17.350973 3.347147 0.026624
16.023474 5.016040 0.018517
16.665461 5.005070 1.695274
14.661741 5.003146 1.658146
13.682219 2.970371 3.244163
12.982376 1.320135 4.957241
12.663023 0.003608 3.272861
13.979209 0.002472 4.960101
11.273103 1.603667 4.940309
10.663225 -0.007985 3.263464
11.994621 -0.011062 4.940593
10.012355 -0.026697 4.935323
11.324812 0.010500 1.592157
9.305502 0.000067 1.603693
9.991143 0.008889 -0.071384
8.670390 1.663929 -0.052206
7.984774 4.989637 -0.037822
9.994354 5.001623 -0.056439
11.215941 2.643911 3.223566
9.253672 4.987739 3.247480
10.739866 3.300559 4.947833
11.300788 5.003749 3.269264
9.994205 4.981842 4.952464
11.978540 5.006052 4.953708
8.014901 4.976068 4.965487
8.751712 3.363421 4.953297
6.969377 4.989891 3.092484
5.375368 3.346637 4.999875
6.019525 4.975609 4.995806
7.045472 3.653429 4.975269
5.146886 2.353887 3.148003
4.629511 4.989226 3.301094
3.498070 3.176833 5.006136
4.014808 4.980657 5.011705
2.371112 4.991998 3.297699
4.826838 1.594156 0.013820
4.901358 -0.018216 1.890592
6.708724 1.645594 -0.016862
7.009923 2.548749 2.176404
8.661800 -0.019637 3.284116
17.322115 4.993052 3.375677
15.315156 5.003193 3.336541
15.979112 4.991613 5.015440
14.694772 1.610622 4.975303
15.246842 3.301687 4.997549
12.001733 0.020090 -0.069107
15.349321 3.349875 -0.008266
14.021891 5.014494 -0.019349
12.659812 5.009688 1.625734
13.310670 5.007846 3.307910
7.236551 -0.007656 1.664294
6.678440 -0.023494 3.361365
4.923225 1.625686 5.005146
6.018561 -0.024787 4.986655
4.917782 -0.016572 3.669330
4.007213 -0.015686 5.009844
7.066263 1.854962 4.979393
8.024967 -0.026706 4.961731
9.287357 1.666115 4.945843
20.983160 1.864445 5.069983
22.698240 3.353864 5.108711
23.991127 4.967500 5.125787
24.653854 3.309916 5.116402
23.327124 4.976907 3.457111
27.327488 4.975671 3.467262
26.671244 4.985195 1.798761
25.327742 4.981318 3.464370
35.174599 1.609247 0.132025
36.861977 1.459311 0.155292
39.988663 3.202278 3.808132
39.996002 1.596148 2.767964
38.303997 4.966725 2.725965
40.006470 3.224573 2.080403
39.988964 4.955560 3.541900
37.969460 4.933679 5.199996
39.972477 4.931791 5.210374
39.975266 3.270252 5.188701
39.978573 1.606192 5.162283
39.993126 -0.044406 3.481179
40.006218 -0.023253 1.823223
40.022079 -0.012377 0.158601
40.036102 1.661264 0.171869
40.026577 3.323037 0.183755
38.332413 2.457250 0.176840
38.023373 4.987712 0.190733
40.007069 4.974809 1.874036
36.823261 4.948277 3.731065
36.516430 4.971875 2.003492
36.533909 3.178406 0.169639
36.017342 4.994473 0.179985
34.607002 3.299232 0.144211
34.010998 4.993844 0.163249
30.663021 3.326029 0.140818
30.014849 4.993852 0.154907
32.008717 5.000129 0.165321
30.660995 4.979477 1.826040
28.675991 3.334193 0.126340
26.712818 -0.025612 3.478972
27.253040 -0.012579 1.782032
25.301146 1.639213 5.100668
23.991814 -0.039635 5.077996
25.980001 -0.038151 5.091650
24.991812 -0.023512 3.760142
23.252178 1.659115 5.091972
23.267950 -0.026724 3.460654
21.257990 -0.012944 3.370790
21.982798 -0.028092 5.068342
19.977623 -0.014363 5.047814
17.980961 4.984158 5.053766
19.986883 4.972470 5.093884
22.737558 -0.005267 1.759483
24.995543 -0.009051 1.972202
24.011301 0.007263 0.073631
26.004433 -0.000665 0.084435
26.016159 5.002997 0.133047
25.698740 2.217296 3.597190
28.670273 4.979941 1.810809
28.017324 4.991891 0.139631
25.996050 4.963272 5.132081
12.009324 5.006966 -0.046968
12.979081 3.115587 4.965926
13.977731 5.000714 4.986837
21.991501 4.965436 5.107972
28.713745 -0.046210 3.406427
29.320011 4.966316 3.484571
29.989826 4.941831 5.159236
31.303980 4.963297 3.500732
31.981688 -0.055028 5.120110
33.976242 -0.063863 5.117944
35.975731 4.930138 5.178888
32.641571 4.982375 1.835314
20.700771 1.688699 0.072764
20.731100 0.003798 1.670918
24.024570 5.008245 0.122737
27.999485 4.950464 5.135572
40.023670 4.989477 0.209338
3.188583 1.452922 5.013168
0.000000 3.103853 1.750106
0.000000 5.000000 1.666667
0.000000 3.333333 0.000000
2.000959 5.003302 0.013086
0.000000 5.000000 0.000000
0.000000 5.000000 3.333333
0.000000 0.000000 3.333333
1.700467 2.465046 5.008822
3.037128 -0.007706 3.406092
1.998340 0.001017 5.015586
0.000000 2.403264 3.370902
0.000000 1.666667 5.000000
0.000000 3.333333 5.000000
0.000000 0.000000 5.000000
27.978119 -0.053943 5.098357
29.981098 -0.065842 5.099761
36.021416 0.006724 0.129994
39.975071 -0.059115 5.148757
7.982745 -0.000067 -0.045181
2.005121 4.990596 5.014901
3.153954 1.445719 0.012559
3.991299 -0.017137 0.015755
22.015139 0.012945 0.065237
0.000000 5.000000 5.000000
5.983099 -0.009893 -0.005419

CELLS 734 3670
4 0 1 2 3
4 0 4 2 5
4 0 3 2 6
4 4 6 0 2
4 4 6 7 0
4 8 9 10 11
4 12 13 14 15
4 16 17 14 18
4 19 20 18 21
4 20 22 21 23
4 24 25 26 23
4 25 27 26 23
4 26 28 29 30
4 28 29 31 32
4 33 34 32 31
4 31 33 35 32
4 31 33 36 35
4 33 37 36 35
4 38 39 40 31
4 41 42 43 38
4 44 42 45 38
4 44 42 38 43
4 46 38 42 41
4 46 47 40 48
4 49 50 51 52
4 53 54 51 55
4 56 54 55 57
4 56 58 59 57
4 60 59 61 62
4 63 61 64 65
4 66 67 68 69
4 67 70 71 72
4 73 74 75 76
4 74 77 75 76
4 77 78 79 80
4 79 81 75 80
4 77 78 80 82
4 77 83 76 84
4 83 85 76 84
4 85 86 74 84
4 74 86 87 84
4 88 89 86 90
4 91 89 88 90
4 86 88 90 92
4 90 86 92 74
4 86 89 74 90
4 93 94 95 74
4 70 74 72 93
4 70 73 71 72
4 74 96 73 72
4 66 97 93 72
4 96 97 72 93
4 96 98 97 93
4 85 96 74 99
4 96 98 93 99
4 98 89 100 93
4 101 102 100 103
4 104 105 101 106
4 107 58 57 60
4 58 107 57 56
4 53 108 109 55
4 56 110 109 54
4 53 111 109 108
4 112 53 109 52
4 111 112 113 53
4 112 111 113 114
4 115 116 114 117
4 40 28 115 117
4 45 117 118 28
4 119 28 25 44
4 120 44 121 122
4 123 121 124 125
4 125 123 126 124
4 127 128 21 124
4 16 129 128 21
4 16 18 14 130
4 16 17 18 19
4 131 17 132 18
4 16 19 18 21
4 133 16 19 134
4 135 134 133 136
4 135 137 136 138
4 137 134 139 140
4 141 142 143 144
4 145 146 147 7
4 142 148 147 146
4 7 146 147 149
4 10 7 9 146
4 145 150 7 151
4 152 151 150 153
4 16 128 154 124
4 124 21 121 133
4 25 28 30 44
4 28 38 45 40
4 45 47 40 42
4 155 45 156 47
4 157 156 47 155
4 155 45 40 117
4 45 42 158 159
4 44 42 43 158
4 119 45 158 159
4 120 44 158 119
4 25 127 21 121
4 25 27 160 30
4 127 25 160 30
4 25 127 121 30
4 44 25 121 30
4 28 30 44 29
4 119 28 44 45
4 119 28 118 25
4 28 24 26 161
4 26 32 29 28
4 28 31 29 38
4 46 38 41 39
4 46 38 39 40
4 28 117 40 45
4 118 28 117 161
4 162 24 118 161
4 118 119 163 164
4 136 119 164 163
4 25 133 21 163
4 128 16 21 124
4 165 166 153 154
4 166 167 168 169
4 167 168 169 170
4 171 168 172 166
4 124 173 126 154
4 123 121 133 124
4 120 125 122 121
4 122 158 44 43
4 47 46 40 42
4 52 50 174 48
4 175 50 174 54
4 176 175 177 178
4 179 60 180 181
4 64 69 63 65
4 68 72 67 66
4 70 73 182 71
4 74 79 183 75
4 184 78 185 79
4 79 184 186 187
4 186 184 188 187
4 184 189 190 191
4 184 78 79 186
4 78 189 184 191
4 189 184 190 188
4 184 78 191 192
4 184 78 192 185
4 192 78 80 185
4 193 80 194 185
4 195 81 196 194
4 81 79 196 194
4 197 187 196 198
4 187 79 185 196
4 79 184 187 185
4 197 199 187 198
4 199 197 187 200
4 199 200 187 186
4 78 201 79 186
4 189 201 87 78
4 202 201 79 74
4 201 74 92 87
4 201 202 92 74
4 201 202 79 186
4 202 203 74 79
4 202 198 203 79
4 204 202 199 203
4 202 203 205 74
4 202 204 205 203
4 182 203 74 205
4 74 203 183 79
4 79 203 183 198
4 79 81 198 183
4 81 79 198 196
4 187 79 196 198
4 202 198 79 186
4 202 204 94 205
4 94 95 205 206
4 207 208 209 210
4 208 207 211 210
4 104 103 211 65
4 104 60 212 213
4 214 215 216 217
4 218 219 220 221
4 222 174 220 221
4 46 39 222 174
4 52 46 40 48
4 40 49 52 48
4 53 49 52 113
4 40 49 155 113
4 155 45 47 40
4 157 47 223 155
4 49 223 224 48
4 52 50 51 54
4 175 54 57 178
4 218 175 54 57
4 225 219 54 57
4 218 175 57 177
4 57 217 219 218
4 219 225 226 57
4 225 227 226 57
4 59 110 57 227
4 59 60 61 228
4 61 60 213 228
4 64 61 213 228
4 63 61 213 64
4 61 104 211 65
4 180 60 104 62
4 58 229 62 180
4 58 60 180 62
4 60 61 104 62
4 60 226 230 212
4 226 60 213 212
4 60 104 212 230
4 179 60 230 104
4 104 211 231 62
4 180 229 62 232
4 180 232 62 231
4 179 60 104 180
4 233 181 105 179
4 181 105 179 230
4 105 214 106 230
4 105 214 230 177
4 215 214 218 217
4 215 217 218 219
4 218 215 219 221
4 218 175 174 54
4 39 52 220 174
4 39 46 52 174
4 115 52 112 35
4 28 115 117 161
4 162 118 116 161
4 24 162 118 163
4 20 19 234 163
4 25 133 163 119
4 120 119 158 235
4 236 119 235 159
4 235 119 158 159
4 119 235 133 136
4 138 235 236 164
4 45 47 42 159
4 46 38 40 42
4 49 50 52 48
4 237 175 176 178
4 181 233 177 176
4 180 179 231 104
4 207 103 65 211
4 207 103 68 65
4 65 66 103 68
4 103 66 97 93
4 66 103 97 63
4 213 104 63 238
4 238 97 103 63
4 104 102 103 238
4 104 106 212 230
4 214 212 106 230
4 214 212 216 106
4 214 212 217 216
4 214 212 230 217
4 226 217 230 212
4 226 60 230 57
4 181 60 57 230
4 179 105 104 230
4 179 105 101 104
4 104 239 103 101
4 239 101 240 100
4 91 241 240 100
4 241 239 240 100
4 239 241 103 100
4 103 210 93 241
4 103 207 93 210
4 210 103 231 239
4 103 239 104 231
4 103 104 63 65
4 65 66 63 103
4 65 66 68 69
4 68 72 66 93
4 96 98 242 97
4 85 96 99 243
4 85 86 99 74
4 86 89 99 74
4 88 86 244 92
4 74 86 92 87
4 201 244 87 92
4 244 86 87 92
4 90 74 92 94
4 94 95 206 245
4 95 209 206 245
4 245 207 95 209
4 208 232 231 211
4 180 104 231 62
4 181 60 107 57
4 54 175 51 178
4 50 52 174 54
4 246 36 52 247
4 246 36 37 35
4 52 31 36 35
4 31 39 52 36
4 39 46 222 41
4 39 222 174 220
4 174 218 220 221
4 218 219 54 220
4 225 219 220 54
4 56 110 54 57
4 110 56 59 57
4 60 59 226 228
4 60 226 213 228
4 57 217 230 226
4 214 217 230 218
4 218 57 230 177
4 181 105 230 177
4 179 60 181 230
4 58 107 180 60
4 229 107 58 248
4 229 107 180 58
4 60 58 59 62
4 58 107 56 248
4 108 56 109 55
4 108 56 55 248
4 107 56 55 57
4 107 181 57 178
4 57 181 177 178
4 181 176 177 178
4 233 181 177 105
4 249 239 101 240
4 91 89 241 100
4 89 91 241 90
4 210 245 93 241
4 245 241 90 93
4 93 94 90 245
4 74 202 92 94
4 205 204 94 206
4 202 198 199 203
4 202 198 186 199
4 199 197 200 250
4 199 186 187 198
4 200 186 188 187
4 184 189 186 188
4 201 189 87 244
4 189 201 78 186
4 201 78 79 87
4 189 78 184 186
4 186 79 187 198
4 74 201 79 87
4 74 79 84 87
4 79 78 84 87
4 77 78 84 79
4 74 77 84 79
4 74 85 84 76
4 83 243 76 85
4 85 96 243 76
4 73 96 74 76
4 96 93 74 99
4 89 93 99 74
4 93 94 74 90
4 93 94 245 95
4 207 95 68 93
4 95 70 68 93
4 95 70 74 205
4 74 70 182 205
4 94 95 74 205
4 241 89 90 93
4 104 179 231 239
4 181 60 180 107
4 107 57 55 178
4 57 54 55 178
4 53 49 51 52
4 40 49 113 52
4 155 47 223 48
4 45 47 159 156
4 119 156 45 159
4 120 44 119 121
4 16 173 124 154
4 166 167 169 145
4 145 7 147 251
4 9 7 252 149
4 253 254 252 255
4 256 253 255 254
4 6 9 252 255
4 253 257 149 252
4 7 258 259 260
4 260 261 251 170
4 169 260 251 170
4 169 251 167 170
4 166 167 145 171
4 16 22 18 130
4 25 24 20 23
4 24 25 118 28
4 119 156 118 45
4 119 28 45 118
4 119 45 44 158
4 44 38 28 29
4 25 28 26 30
4 25 24 26 28
4 24 20 234 163
4 162 24 234 163
4 163 119 118 25
4 235 135 133 136
4 135 134 140 133
4 145 141 153 144
4 145 260 169 151
4 0 258 4 5
4 259 258 262 263
4 264 259 262 263
4 258 7 262 0
4 260 258 259 261
4 258 261 263 259
4 261 258 263 265
4 261 260 251 259
4 167 251 169 145
4 145 260 251 169
4 166 167 171 168
4 16 171 153 140
4 137 135 136 134
4 138 135 235 136
4 235 138 136 164
4 236 119 156 164
4 157 156 159 47
4 155 47 48 40
4 40 49 48 155
4 46 52 174 48
4 247 225 220 54
4 110 225 57 227
4 60 59 57 226
4 104 61 211 62
4 232 211 62 231
4 103 104 211 231
4 239 210 103 241
4 241 93 103 100
4 68 72 93 70
4 103 207 68 93
4 207 103 211 210
4 210 208 231 211
4 103 210 231 211
4 245 207 210 93
4 245 207 209 210
4 245 207 93 95
4 70 95 74 93
4 70 73 74 182
4 182 203 183 74
4 202 74 205 94
4 93 89 90 74
4 89 241 100 93
4 93 98 103 100
4 101 104 102 103
4 104 101 102 106
4 106 238 104 212
4 266 216 212 106
4 106 238 212 266
4 106 238 102 104
4 267 266 238 102
4 97 102 267 238
4 106 238 266 102
4 97 102 238 103
4 97 102 103 98
4 97 102 98 267
4 97 98 242 267
4 96 98 99 242
4 89 98 99 93
4 239 101 100 103
4 104 179 239 101
4 179 249 239 101
4 105 179 101 249
4 233 105 249 179
4 177 181 57 230
4 175 57 177 178
4 175 237 51 178
4 55 54 51 178
4 112 111 109 53
4 112 53 52 113
4 117 115 113 114
4 116 118 117 161
4 115 116 117 161
4 28 115 161 32
4 29 32 26 34
4 26 30 29 27
4 34 26 29 27
4 29 34 31 32
4 31 115 32 35
4 31 115 28 32
4 246 112 52 35
4 246 247 52 54
4 247 110 225 54
4 59 227 57 226
4 213 104 238 212
4 104 103 63 238
4 97 98 103 93
4 70 73 72 74
4 71 182 268 73
4 182 75 268 73
4 182 75 183 268
4 183 81 268 75
4 182 75 74 183
4 79 81 183 75
4 79 81 80 194
4 78 192 80 82
4 192 193 80 82
4 269 193 192 82
4 193 192 80 185
4 80 79 194 185
4 77 74 75 79
4 85 96 76 74
4 96 243 242 99
4 98 102 103 100
4 104 105 106 230
4 214 218 230 177
4 50 175 51 54
4 49 155 223 48
4 157 156 236 159
4 236 119 159 156
4 235 119 164 136
4 236 119 164 235
4 133 235 120 123
4 120 235 133 119
4 135 123 235 133
4 124 173 123 126
4 173 172 126 154
4 166 171 154 172
4 172 171 154 173
4 171 16 154 173
4 171 166 154 153
4 16 171 154 153
4 124 173 16 133
4 124 173 133 123
4 25 133 119 121
4 19 16 133 21
4 163 19 133 21
4 134 19 133 136
4 133 119 136 163
4 133 19 163 136
4 132 20 18 19
4 20 132 234 19
4 20 19 163 21
4 22 20 21 18
4 16 22 21 18
4 128 129 127 21
4 160 129 21 127
4 160 21 25 127
4 25 20 21 23
4 25 27 23 160
4 25 27 30 26
4 23 22 21 160
4 16 129 21 22
4 128 130 165 270
4 128 130 270 129
4 128 130 16 165
4 16 165 153 154
4 17 16 14 153
4 131 17 18 14
4 17 141 153 15
4 12 10 15 153
4 15 17 14 153
4 153 16 14 130
4 16 129 22 130
4 128 130 129 16
4 16 128 165 154
4 151 166 153 165
4 260 145 7 151
4 9 6 252 7
4 7 262 252 149
4 260 259 7 251
4 7 259 147 251
4 264 259 271 149
4 259 7 147 149
4 146 148 147 149
4 271 259 147 149
4 148 271 147 149
4 146 142 143 141
4 144 141 140 139
4 141 134 140 139
4 143 141 144 139
4 142 145 141 146
4 145 142 141 144
4 148 142 143 146
4 145 7 10 146
4 145 150 151 153
4 151 272 150 7
4 151 272 273 150
4 151 272 4 273
4 4 272 2 273
4 151 272 7 4
4 4 260 7 151
4 166 145 151 153
4 166 145 169 151
4 171 166 153 145
4 133 16 140 173
4 124 16 21 133
4 25 21 160 23
4 21 129 160 22
4 121 21 124 127
4 121 120 133 119
4 123 121 125 120
4 123 121 120 133
4 25 133 121 21
4 25 20 163 21
4 118 24 28 161
4 26 28 161 32
4 40 115 28 31
4 115 52 113 112
4 246 112 109 52
4 246 52 109 54
4 56 54 109 55
4 56 107 55 248
4 58 60 59 57
4 63 61 65 104
4 68 72 70 67
4 182 75 73 74
4 77 79 75 80
4 196 79 185 194
4 79 78 185 80
4 77 78 82 84
4 83 77 82 84
4 77 74 84 76
4 96 74 93 72
4 103 66 93 68
4 65 66 69 63
4 63 61 104 213
4 61 60 104 213
4 59 227 226 228
4 274 110 227 225
4 246 36 247 37
4 246 36 35 52
4 52 115 40 31
4 28 31 38 40
4 44 42 158 45
4 120 44 122 158
4 135 133 140 173
4 171 16 173 140
4 171 144 153 140
4 141 144 140 153
4 10 141 15 153
4 10 12 15 13
4 10 8 12 13
4 8 10 12 11
4 8 9 11 255
4 9 253 149 252
4 257 262 149 252
4 262 259 149 7
4 258 7 4 260
4 259 258 7 262
4 262 0 7 252
4 0 6 7 252
4 254 6 252 255
4 0 3 6 252
4 6 3 254 252
4 272 6 11 7
4 4 6 272 7
4 4 6 2 272
4 9 6 11 255
4 9 253 252 255
4 262 264 257 149
4 257 264 275 271
4 259 264 262 149
4 257 264 271 149
4 9 146 7 149
4 10 7 11 9
4 7 12 10 11
4 145 150 153 12
4 12 145 10 153
4 145 146 10 141
4 145 142 147 146
4 171 145 153 144
4 171 142 145 144
4 142 171 145 167
4 142 145 147 167
4 167 145 147 251
4 145 260 7 251
4 145 150 12 7
4 12 145 7 10
4 12 152 153 14
4 152 153 14 130
4 152 151 153 165
4 165 152 276 270
4 152 151 165 276
4 165 152 270 130
4 152 151 276 150
4 276 150 151 273
4 272 7 11 150
4 7 12 11 150
4 153 150 152 12
4 165 16 153 130
4 165 152 130 153
4 15 12 153 14
4 13 131 14 15
4 17 131 15 14
4 17 132 18 19
4 25 24 163 20
4 25 24 118 163
4 119 156 164 118
4 118 117 45 156
4 155 45 117 156
4 113 40 117 155
4 50 49 224 48
4 49 50 224 51
4 50 237 224 51
4 237 50 175 51
4 52 54 220 174
4 52 247 220 54
4 39 247 220 52
4 39 247 52 36
4 115 52 35 31
4 40 115 52 113
4 40 115 113 117
4 115 112 113 114
4 53 52 51 54
4 54 53 109 55
4 52 53 109 54
4 110 246 109 54
4 247 110 54 246
4 247 110 274 225
4 246 274 37 247
4 247 110 246 274
4 110 225 54 57
4 57 217 226 219
4 57 217 218 230
4 219 218 54 57
4 218 54 174 220
4 46 39 52 40
4 39 31 52 40
4 38 42 45 40
4 28 38 44 45
4 121 25 44 119
4 123 135 173 133
4 134 153 140 16
4 134 16 140 133
4 137 135 134 140
4 134 153 141 140
4 134 153 16 17
4 16 17 19 134
4 134 153 17 141
4 153 145 10 141
4 6 9 11 7
4 258 7 0 4
4 1 0 2 5

CELL_TYPES 734
10
10
10
10
10
10
10
10
10
10
10
10
10
10
10
10
10
10
10
10
10
10
10
10
10
10
10
10
10
10
10
10
10
10
10
10
10
10
10
10
10
10
10
10
10
10
10
10
10
10
10
10
10
10
10
10
10
10
10
10
10
10
10
10
10
10
10
10
10
10
10
10
10
10
10
10
10
10
10
10
10
10
10
10
10
10
10
10
10
10
10
10
10
10
10
10
10
10
10
10
10
10
10
10
10
10
10
10
10
10
10
10
10
10
10
10
10
10
10
10
10
10
10
10
10
10
10
10
10
10
10
10
10
10
10
10
10
10
10
10
10
10
10
10
10
10
10
10
10
10
10
10
10
10
10
10
10
10
10
10
10
10
10
10
10
10
10
10
10
10
10
10
10
10
10
10
10
10
10
10
10
10
10
10
10
10
10
10
10
10
10
10
10
10
10
10
10
10
10
10
10
10
10
10
10
10
10
10
10
10
10
10
10
10
10
10
10
10
10
10
10
10
10
10
10
10
10
10
10
10
10
10
10
10
10
10
10
10
10
10
10
10
10
10
10
10
10
10
10
10
10
10
10
10
10
10
10
10
10
10
10
10
10
10
10
10
10
10
10
10
10
10
10
10
10
10
10
10
10
10
10
10
10
10
10
10
10
10
10
10
10
10
10
10
10
10
10
10
10
10
10
10
10
10
10
10
10
10
10
10
10
10
10
10
10
10
10
10
10
10
10
10
10
10
10
10
10
10
10
10
10
10
10
10
10
10
10
10
10
10
10
10
10
10
10
10
10
10
10
10
10
10
10
10
10
10
10
10
10
10
10
10
10
10
10
10
10
10
10
10
10
10
10
10
10
10
10
10
10
10
10
10
10
10
10
10
10
10
10
10
10
10
10
10
10
10
10
10
10
10
10
10
10
10
10
10
10
10
10
10
10
10
10
10
10
10
10
10
10
10
10
10
10
10
10
10
10
10
10
10
10
10
10
10
10
10
10
10
10
10
10
10
10
10
10
10
10
10
10
10
10
10
10
10
10
10
10
10
10
10
10
10
10
10
10
10
10
10
10
10
10
10
10
10
10
10
10
10
10
10
10
10
10
10
10
10
10
10
10
10
10
10
10
10
10
10
10
10
10
10
10
10
10
10
10
10
10
10
10
10
10
10
10
10
10
10
10
10
10
10
10
10
10
10
10
10
10
10
10
10
10
10
10
10
10
10
10
10
10
10
10
10
10
10
10
10
10
10
10
10
10
10
10
10
10
10
10
10
10
10
10
10
10
10
10
10
10
10
10
10
10
10
10
10
10
10
10
10
10
10
10
10
10
10
10
10
10
10
10
10
10
10
10
10
10
10
10
10
10
10
10
10
10
10
10
10
10
10
10
10
10
10
10
10
10
10
10
10
10
10
10
10
10
10
10
10
10
10
10
10
10
10
10
10
10
10
10
10
10
10
10
10
10
10
10
10
10
10
10
10
10
10
10
10
10
10
10
10
10
10
10
10
10
10
10
10
10
10
10
10
10
10
10
10
10
10
10
10
10
10
10
10
10
10
10
10
10
10
10
10
10
10
10
10
10
10
10
10
10
10
10
10
10
10
10
10
10
10
10
10
10
10
10
10
10
10
10
10
10
10
10
10
10
10
10
10
10
10
10
10
10
10
10
10

CELL_DATA 734
SCALARS potentialEnergy FLOAT 1
LOOKUP_TABLE default
39.905861
51.366180
37.868320
135.707291
94.312370
107.496269
62.782730
228.273972
245.277725
186.105637
133.714729
63.884945
64.031796
57.034534
59.668179
84.673050
69.049217
67.217583
144.896576
97.656029
197.863876
70.540661
78.357307
138.630981
86.730598
37.995686
31.497667
42.885498
45.911106
77.045204
27.110970
107.918709
128.518021
50.064495
45.857513
27.310268
121.643478
59.215473
47.075222
88.284607
49.779648
40.483095
39.846657
30.618481
99.162636
218.239868
82.960808
101.810890
112.231987
135.592476
67.102161
40.065901
50.846722
168.130035
58.954098
27.062168
93.822121
151.479004
53.173977
59.254219
30.501339
19.174198
26.762028
127.551117
54.050781
41.114386
114.821281
138.053268
201.710388
123.429764
84.302948
75.380013
232.602417
46.954952
46.826485
285.328430
77.633423
92.589249
132.900505
175.424240
255.209213
196.571350
242.925964
119.481186
78.736351
55.435658
78.275787
67.674175
79.030090
145.366562
108.047523
228.370804
100.427345
142.719742
116.492165
197.872955
127.249199
112.180473
69.554642
54.997952
66.406223
65.492302
62.196621
80.521011
54.469204
110.403648
104.769035
87.114624
90.126091
126.709427
61.780018
132.049362
87.805725
170.604507
205.256897
133.736115
158.629593
172.043213
101.849892
102.607475
101.334076
68.721546
114.452888
81.709717
131.900475
149.479065
77.277443
120.741508
177.513901
110.624634
139.066116
113.188881
85.701172
16.537853
56.192574
17.380847
46.180843
141.582260
140.564529
136.241394
148.486877
88.045616
37.830580
184.389435
96.334419
41.768017
81.686646
171.014175
406.798279
189.036133
73.760670
322.769287
150.380646
258.005127
104.641457
143.496780
57.980118
37.231665
155.885239
42.889076
115.203613
64.396938
17.433323
120.404617
192.958664
168.597076
81.990959
231.100967
171.144531
155.872879
107.656212
123.917564
171.797379
264.909790
165.456940
77.921837
43.034657
33.852873
50.996487
73.203556
22.908762
46.914742
112.654831
26.895660
50.462570
70.569290
221.041809
281.217377
123.505432
161.379715
140.643829
116.435753
156.391937
128.273308
62.415058
43.740280
43.279324
56.257999
53.818127
55.161442
49.635990
47.106583
47.269806
64.447063
20.253211
33.990467
35.385815
54.134884
38.657093
42.737534
38.909092
45.611366
38.204855
25.140800
50.677582
32.256641
85.321358
47.495464
85.052887
16.278648
32.027323
28.892727
33.191612
27.712431
28.097475
105.813499
108.015579
95.544395
175.723190
123.205864
121.078995
62.556988
45.335243
86.499817
189.493805
35.924459
66.816700
66.924240
110.830299
95.039192
88.743202
200.066040
145.264557
39.700493
57.658455
43.696449
43.028980
34.495298
63.516327
29.378290
20.684871
115.366402
124.469757
138.961960
65.940598
26.492640
25.773155
31.268169
30.698578
43.120251
44.095940
37.997320
72.054169
140.252563
70.905182
50.056576
55.972557
56.021969
33.274324
167.441483
66.122925
32.960918
20.892594
49.582344
17.245846
15.612137
47.840302
68.542515
140.949738
120.031227
138.653976
113.156654
57.693417
28.686846
119.839851
127.770912
55.315624
48.319958
37.876715
63.562386
31.184704
62.855106
64.267052
107.952744
46.114613
59.886539
149.702728
147.826569
89.773262
79.870499
48.189487
48.189888
61.622013
40.541309
96.081245
50.493290
66.405724
46.099426
42.212189
65.341557
28.405710
31.794260
45.411957
78.772606
25.146307
32.380714
29.487526
21.598906
23.892354
70.395496
72.349800
24.980198
27.834965
14.492775
117.504509
37.622831
30.660717
86.608223
75.548538
103.410728
96.758606
60.002880
145.353729
46.761436
57.475479
181.429749
41.986975
78.796753
123.748604
179.782837
90.735374
184.911697
133.981003
161.228806
120.660011
94.977394
118.569283
125.322868
97.342682
70.836773
62.040619
290.104553
159.182571
119.900780
122.596558
102.159874
98.776070
79.933403
91.438774
181.696930
72.306877
53.284649
40.014090
55.434772
97.457832
32.268011
101.607788
147.626617
83.449013
144.322311
53.857624
108.126572
112.021011
151.548248
78.024605
164.035385
46.724918
40.919706
77.297462
74.035828
79.838905
92.499008
30.489883
72.871433
147.940842
94.492065
104.531624
126.011734
72.364414
104.209312
93.642258
123.830856
51.211082
78.254883
89.281097
215.152740
149.961395
438.729065
145.698120
212.597244
87.153923
31.801805
63.779762
47.034569
50.159977
87.151741
57.008236
59.579369
71.495659
93.648438
50.131863
78.063393
222.363403
102.847351
247.876190
133.822762
69.744625
90.225189
209.278015
246.721176
125.408928
68.697025
35.933823
46.305378
21.829570
20.954445
35.014273
22.116514
26.237631
82.456772
116.103363
55.730762
36.155720
51.978901
64.954182
52.283817
113.542297
116.552719
204.437897
104.114410
79.413589
96.358307
32.599760
26.980721
86.430222
131.899315
120.962288
83.367828
65.683651
123.516579
36.772738
114.393356
52.356392
223.032837
132.173248
94.930061
76.453430
55.947639
49.808281
147.789948
113.328362
91.111305
45.575512
40.158291
74.543694
27.344790
49.135071
35.349449
72.942509
94.855736
97.165131
63.890144
47.252094
68.319416
67.034866
59.397392
72.316635
116.109909
97.736732
67.564877
72.329796
94.205269
52.511196
69.071072
84.735481
98.147652
62.734261
233.533737
90.943520
68.102234
77.428284
58.191502
138.930557
126.383850
198.391357
354.238800
178.955811
96.637802
123.219582
106.387428
60.859146
169.305695
88.861023
72.561031
57.867699
35.304613
111.122070
125.043442
73.141552
75.238861
182.960907
55.059330
149.887650
148.723465
303.168518
158.047577
131.885269
109.992714
93.187119
258.693481
211.721832
216.429779
113.097931
331.192657
144.291428
110.196251
149.303986
116.299500
74.753242
140.169052
273.906525
153.957245
159.614960
147.673462
51.417450
35.101004
133.326653
75.406029
138.724121
57.086441
29.340179
177.249908
79.347641
100.283142
88.590271
145.031281
129.760628
219.023590
114.471008
97.801971
97.070061
128.072983
211.288391
71.794003
56.684444
136.250008
151.791687
29.995201
214.513718
83.650604
123.471802
197.935181
83.628532
144.355316
36.858307
98.430054
117.710701
67.567978
57.485973
90.997437
102.724861
147.997955
225.288437
53.840343
177.670792
121.337654
97.295128
91.725906
55.536800
75.914291
68.488110
119.550911
145.988617
146.513153
125.066147
115.790459
202.588623
58.791142
147.979126
129.465836
238.929092
116.790756
195.407791
99.375977
114.224533
100.513077
56.837837
162.300888
200.375092
79.665833
78.332100
81.702759
31.642220
43.987862
26.214640
101.943428
154.130219
13.629440
258.235977
150.351837
96.248589
68.672531
49.383083
80.474464
41.017883
29.837044
57.771996
51.709541
77.737617
38.892635
28.124231
88.434227
194.336533
134.252724
187.829117
52.396141
103.609947
207.003448
153.941528
174.312195
66.658691
47.598427
76.097603
61.053905
138.910233
141.983978
94.748970
84.355217
54.584171
91.568962
39.170322
74.710022
49.931950
119.942268
115.974083
120.851662
82.530838
110.593819
144.877426
51.605000
96.427055
235.188354
69.632610
144.601196
82.519478
91.488564
90.097725
75.687370
77.474037
58.234116
105.940475
248.558228
96.960892
82.732590
78.176971
64.780502
45.347466
130.613815
101.194656
130.115776
125.795029
216.246674
104.193718
110.128967
79.990501
80.927666
123.226326
87.980881
74.048195
76.982368
157.037689
150.984238
120.255638
79.922684
120.125465
79.686722
267.794189
150.848419
54.403568
105.538223
138.796310
149.484741
100.076042
61.972820
32.127052
71.900333
117.455048
61.433487
53.006954
52.275154
182.824249
229.674576
277.536194
83.469063
145.910477
53.205311
103.841698
26.019976
27.165466
17.404679
41.472612
24.447935
41.920893
43.673615
65.659679
44.516945
118.065399
247.481216
141.041779
139.189590
151.063293
102.219437
158.143021
343.788879
220.055725
144.003937
232.789948
271.456970
86.079758
137.600334
67.120968
217.979553
55.613804
33.494730

