# vtk DataFile Version 3.1
Tetrahedral Mesh Visualization
ASCII
DATASET UNSTRUCTURED_GRID

POINTS 277 FLOAT
0.000000 1.378113 1.754166
0.000000 0.000000 0.000000
2.001984 0.004292 -0.009521
0.000000 1.666667 0.000000
2.421242 0.006318 1.723181
0.000000 0.000000 1.666667
1.695665 2.468835 -0.007313
2.999085 2.457148 2.314784
4.000601 4.999334 -0.019754
3.072805 4.999152 1.628168
5.209243 4.993988 1.579320
3.491264 3.177838 -0.013415
5.415426 3.301731 -0.020858
6.012216 4.989887 -0.026764
7.387726 3.325447 -0.009366
6.975574 4.985149 1.299898
9.258723 2.175485 2.038438
8.705290 4.996660 1.605510
9.378489 3.330770 0.012305
10.674473 5.002646 1.672602
11.376412 3.330813 0.031359
11.126295 1.863821 1.588244
10.704690 1.666314 0.028366
12.704355 1.650239 0.053113
13.380306 3.305269 0.059952
12.988954 1.853683 1.549095
14.715541 1.634169 0.091154
14.039269 -0.021124 0.072149
15.483357 2.110053 1.796161
15.348060 -0.027809 1.763694
13.342047 -0.021989 1.724234
17.312572 -0.031071 1.786800
16.727533 1.624281 0.151842
18.062349 -0.037613 0.201768
16.056318 -0.035902 0.130596
18.731211 1.628404 0.217733
19.033253 -0.027831 1.557486
20.055676 -0.035642 0.259497
16.708647 -0.025095 3.456686
18.983900 -0.011680 3.351487
17.690248 2.659651 3.127879
17.931309 -0.007330 5.201529
16.616995 1.649368 5.143493
15.934039 -0.019945 5.127674
14.657249 -0.026905 3.416055
15.747657 2.865996 3.463238
18.668978 1.690878 5.222538
17.252779 3.322567 5.162304
19.225277 3.382869 5.223526
19.305809 4.979971 3.552400
20.942785 3.684251 5.266858
21.309025 4.987679 3.595308
19.630569 2.468640 2.604576
20.674498 4.970854 1.913997
21.912827 2.493377 2.766930
22.665319 4.986704 1.937021
23.328495 3.360510 0.295304
23.969835 2.444849 2.604765
25.039780 3.663665 0.314723
25.041643 1.869589 0.330239
25.991802 2.500113 2.065965
27.303894 1.673640 0.362754
26.749201 3.370744 0.338974
29.273188 -0.016083 2.026784
28.036528 -0.029654 0.392742
29.353977 1.635416 0.398359
30.995996 -0.029811 1.784771
32.042938 -0.049369 0.500317
31.354006 1.621278 0.460260
30.042498 -0.039247 0.437318
33.309944 1.606405 0.513892
34.036068 -0.043388 0.541351
32.681942 -0.032848 2.132001
34.599068 -0.031667 2.238098
34.979298 2.381238 3.069179
36.509701 -0.026573 2.396438
35.111568 -0.014385 3.945328
36.797401 -0.013788 4.129002
38.235954 2.510413 5.592260
37.683777 2.137469 2.768288
38.287247 -0.027247 3.141611
38.039711 -0.030347 0.598614
37.937511 -0.011890 5.603479
35.941090 -0.004735 5.574529
36.500107 1.740577 5.568355
34.873070 1.334142 5.539616
34.790501 3.128382 5.524807
36.697350 3.472021 5.553814
33.947548 4.995977 5.497896
32.632736 3.302588 5.487140
33.251320 4.984773 3.833854
31.941137 4.998373 5.455736
35.134975 4.981349 3.909135
32.196434 2.583309 2.907267
34.599815 4.974335 2.203037
32.674713 3.288884 0.482149
33.177578 -0.014830 3.839664
30.954565 -0.013379 3.573326
31.252026 1.660437 5.453316
33.187046 1.605663 5.507116
30.605448 3.333977 5.423894
28.600634 3.351007 5.376004
29.267302 1.683346 5.399588
30.010864 2.488213 2.883769
27.951460 2.490912 2.844940
26.603264 3.352267 5.335982
27.268616 1.684015 5.359224
24.666813 4.996085 1.961446
22.032888 4.967148 0.255970
21.383167 3.304746 0.272631
22.780481 1.659014 0.307154
20.047651 4.956106 0.226615
19.390537 3.292687 0.227920
18.678583 4.965687 1.867261
18.057140 4.954090 0.176734
17.393200 3.288153 0.169427
16.057325 4.954122 0.115385
16.680580 4.966045 1.800934
14.678470 4.973843 1.742485
13.674155 2.945514 3.332205
12.947180 1.310936 5.051262
12.647034 -0.020106 3.383188
13.944782 -0.017062 5.076125
11.238196 1.612913 5.027442
10.643254 -0.004708 3.361632
11.956626 -0.013117 5.042992
9.967618 -0.003057 5.024425
11.333082 -0.005208 1.700491
9.320427 0.000895 1.680132
10.030484 0.001229 0.017771
8.713177 1.663386 0.002425
8.029127 4.994248 -0.010163
10.035819 5.000873 0.014813
11.209444 2.643666 3.310843
9.242339 4.997781 3.300272
10.706914 3.317518 5.016447
11.298851 5.004617 3.342283
9.975958 5.006501 5.000333
11.970207 5.002556 5.027855
7.976283 5.001723 4.986325
8.709796 3.390059 5.002584
6.959973 5.002846 3.083107
5.346268 3.379679 4.989034
5.990594 5.017490 4.969789
7.008220 3.686085 4.985622
5.141364 2.374163 3.129203
4.618757 4.998430 3.263919
3.484111 3.186883 4.989125
3.993189 5.001395 4.976343
2.369873 5.002254 3.268664
4.849016 1.610661 -0.015387
4.906066 0.009044 1.863848
6.743846 1.656751 -0.005638
7.016052 2.556664 2.182796
8.640052 -0.002628 3.344876
17.303785 4.974288 3.490175
15.307490 4.983777 3.425028
15.938672 4.994395 5.113033
14.654190 1.595839 5.085661
15.211192 3.292442 5.097512
12.031821 -0.009780 0.044081
15.386690 3.292137 0.105133
14.053205 4.965659 0.062870
12.676762 4.988646 1.699584
13.310485 4.991137 3.377619
7.249648 -0.001124 1.685610
6.658313 -0.009811 3.368954
4.900879 1.649912 4.996318
5.986893 -0.007254 4.993227
4.907880 0.001205 3.653775
3.998527 -0.003431 4.993122
7.022577 1.886280 4.989178
7.975336 0.000132 5.002476
9.244374 1.690924 5.013057
20.946985 1.896970 5.285842
22.658039 3.396730 5.290220
23.950096 5.013451 5.278618
24.612099 3.356854 5.305421
23.305342 4.999110 3.608271
27.305677 5.006172 3.670428
26.672522 4.996734 1.992115
25.307842 5.008283 3.633220
35.192657 1.565737 0.544555
36.872684 1.415382 0.571734
39.968224 3.221916 4.238136
39.980682 1.596992 3.226418
38.295921 4.968426 3.098564
40.003262 3.213763 2.512734
39.975517 4.972205 3.926702
37.937561 4.996504 5.555214
39.934017 5.000705 5.594506
39.947571 3.320607 5.606180
39.936325 1.646160 5.625514
39.966362 -0.030848 3.970578
39.997913 -0.034217 2.306130
40.037258 -0.036004 0.631157
40.045227 1.625470 0.626831
40.041714 3.283186 0.610457
38.346317 2.426728 0.590750
38.045822 4.950862 0.558287
40.013748 4.954091 2.259324
36.806648 4.978310 4.082681
36.511333 4.969881 2.350233
36.549862 3.137233 0.547309
36.040279 4.958964 0.526693
34.631832 3.263825 0.518357
34.045422 4.961101 0.497201
30.697451 3.294729 0.424340
30.053125 4.959701 0.393072
32.054562 4.964215 0.454029
30.668095 4.978687 2.078872
28.705566 3.308204 0.372090
26.698465 0.001617 3.749231
27.264673 -0.009814 2.063995
25.265236 1.685513 5.328263
23.957108 0.006372 5.333402
25.953651 0.013243 5.356589
24.974134 -0.001848 4.020170
23.219563 1.704322 5.302442
23.262070 -0.010286 3.702544
21.246014 -0.004211 3.608183
21.958731 0.003828 5.293415
19.943357 0.005336 5.262806
17.930721 4.989395 5.173049
19.933615 4.997711 5.231613
22.744022 -0.024462 2.007343
25.004076 -0.009264 2.230950
24.043331 -0.036192 0.340580
26.036171 -0.027901 0.360411
26.039581 4.983947 0.322760
25.676620 2.240630 3.816581
28.673582 4.981498 2.029960
28.048985 4.969224 0.354076
25.945904 5.019400 5.311464
12.048638 4.989970 0.029878
12.956884 3.108991 5.050244
13.956191 4.999744 5.063760
21.948929 5.000179 5.267193
28.705120 0.003531 3.709757
29.302740 4.993243 3.713945
29.943075 5.008950 5.395832
31.289095 4.990392 3.769038
31.933567 0.005425 5.492012
33.942490 0.002853 5.543264
35.943859 4.990096 5.532071
32.645473 4.978370 2.143496
20.737598 1.633630 0.273569
20.743952 -0.025565 1.897904
24.026468 4.972374 0.288018
27.943214 5.018525 5.352886
40.055779 4.944343 0.596355
3.181240 1.460771 4.990081
0.000000 3.103853 1.750106
0.000000 5.000000 1.666667
0.000000 3.333333 0.000000
1.998222 4.999975 -0.014240
0.000000 5.000000 0.000000
0.000000 5.000000 3.333333
0.000000 0.000000 3.333333
1.697640 2.470087 4.994571
3.036586 -0.000783 3.377558
2.002041 -0.006653 4.988334
0.000000 2.403264 3.370902
0.000000 1.666667 5.000000
0.000000 3.333333 5.000000
0.000000 0.000000 5.000000
27.947117 0.014952 5.384175
29.934124 0.008924 5.431860
36.034687 -0.038962 0.570575
39.931644 -0.026751 5.635791
8.022885 0.007338 -0.005304
1.999877 5.001888 4.991278
3.166943 1.458308 -0.012767
4.005459 0.005872 -0.011926
22.046343 -0.042447 0.302177
0.000000 5.000000 5.000000
6.013391 0.014813 -0.011294

CELLS 734 3670
4 0 1 2 3
4 0 4 2 5
4 0 3 2 6
4 4 6 0 2
4 4 6 7 0
4 8 9 10 11
4 12 13 14 15
4 16 17 14 18
4 19 20 18 21
4 20 22 21 23
4 24 25 26 23
4 25 27 26 23
4 26 28 29 30
4 28 29 31 32
4 33 34 32 31
4 31 33 35 32
4 31 33 36 35
4 33 37 36 35
4 38 39 40 31
4 41 42 43 38
4 44 42 45 38
4 44 42 38 43
4 46 38 42 41
4 46 47 40 48
4 49 50 51 52
4 53 54 51 55
4 56 54 55 57
4 56 58 59 57
4 60 59 61 62
4 63 61 64 65
4 66 67 68 69
4 67 70 71 72
4 73 74 75 76
4 74 77 75 76
4 77 78 79 80
4 79 81 75 80
4 77 78 80 82
4 77 83 76 84
4 83 85 76 84
4 85 86 74 84
4 74 86 87 84
4 88 89 86 90
4 91 89 88 90
4 86 88 90 92
4 90 86 92 74
4 86 89 74 90
4 93 94 95 74
4 70 74 72 93
4 70 73 71 72
4 74 96 73 72
4 66 97 93 72
4 96 97 72 93
4 96 98 97 93
4 85 96 74 99
4 96 98 93 99
4 98 89 100 93
4 101 102 100 103
4 104 105 101 106
4 107 58 57 60
4 58 107 57 56
4 53 108 109 55
4 56 110 109 54
4 53 111 109 108
4 112 53 109 52
4 111 112 113 53
4 112 111 113 114
4 115 116 114 117
4 40 28 115 117
4 45 117 118 28
4 119 28 25 44
4 120 44 121 122
4 123 121 124 125
4 125 123 126 124
4 127 128 21 124
4 16 129 128 21
4 16 18 14 130
4 16 17 18 19
4 131 17 132 18
4 16 19 18 21
4 133 16 19 134
4 135 134 133 136
4 135 137 136 138
4 137 134 139 140
4 141 142 143 144
4 145 146 147 7
4 142 148 147 146
4 7 146 147 149
4 10 7 9 146
4 145 150 7 151
4 152 151 150 153
4 16 128 154 124
4 124 21 121 133
4 25 28 30 44
4 28 38 45 40
4 45 47 40 42
4 155 45 156 47
4 157 156 47 155
4 155 45 40 117
4 45 42 158 159
4 44 42 43 158
4 119 45 158 159
4 120 44 158 119
4 25 127 21 121
4 25 27 160 30
4 127 25 160 30
4 25 127 121 30
4 44 25 121 30
4 28 30 44 29
4 119 28 44 45
4 119 28 118 25
4 28 24 26 161
4 26 32 29 28
4 28 31 29 38
4 46 38 41 39
4 46 38 39 40
4 28 117 40 45
4 118 28 117 161
4 162 24 118 161
4 118 119 163 164
4 136 119 164 163
4 25 133 21 163
4 128 16 21 124
4 165 166 153 154
4 166 167 168 169
4 167 168 169 170
4 171 168 172 166
4 124 173 126 154
4 123 121 133 124
4 120 125 122 121
4 122 158 44 43
4 47 46 40 42
4 52 50 174 48
4 175 50 174 54
4 176 175 177 178
4 179 60 180 181
4 64 69 63 65
4 68 72 67 66
4 70 73 182 71
4 74 79 183 75
4 184 78 185 79
4 79 184 186 187
4 186 184 188 187
4 184 189 190 191
4 184 78 79 186
4 78 189 184 191
4 189 184 190 188
4 184 78 191 192
4 184 78 192 185
4 192 78 80 185
4 193 80 194 185
4 195 81 196 194
4 81 79 196 194
4 197 187 196 198
4 187 79 185 196
4 79 184 187 185
4 197 199 187 198
4 199 197 187 200
4 199 200 187 186
4 78 201 79 186
4 189 201 87 78
4 202 201 79 74
4 201 74 92 87
4 201 202 92 74
4 201 202 79 186
4 202 203 74 79
4 202 198 203 79
4 204 202 199 203
4 202 203 205 74
4 202 204 205 203
4 182 203 74 205
4 74 203 183 79
4 79 203 183 198
4 79 81 198 183
4 81 79 198 196
4 187 79 196 198
4 202 198 79 186
4 202 204 94 205
4 94 95 205 206
4 207 208 209 210
4 208 207 211 210
4 104 103 211 65
4 104 60 212 213
4 214 215 216 217
4 218 219 220 221
4 222 174 220 221
4 46 39 222 174
4 52 46 40 48
4 40 49 52 48
4 53 49 52 113
4 40 49 155 113
4 155 45 47 40
4 157 47 223 155
4 49 223 224 48
4 52 50 51 54
4 175 54 57 178
4 218 175 54 57
4 225 219 54 57
4 218 175 57 177
4 57 217 219 218
4 219 225 226 57
4 225 227 226 57
4 59 110 57 227
4 59 60 61 228
4 61 60 213 228
4 64 61 213 228
4 63 61 213 64
4 61 104 211 65
4 180 60 104 62
4 58 229 62 180
4 58 60 180 62
4 60 61 104 62
4 60 226 230 212
4 226 60 213 212
4 60 104 212 230
4 179 60 230 104
4 104 211 231 62
4 180 229 62 232
4 180 232 62 231
4 179 60 104 180
4 233 181 105 179
4 181 105 179 230
4 105 214 106 230
4 105 214 230 177
4 215 214 218 217
4 215 217 218 219
4 218 215 219 221
4 218 175 174 54
4 39 52 220 174
4 39 46 52 174
4 115 52 112 35
4 28 115 117 161
4 162 118 116 161
4 24 162 118 163
4 20 19 234 163
4 25 133 163 119
4 120 119 158 235
4 236 119 235 159
4 235 119 158 159
4 119 235 133 136
4 138 235 236 164
4 45 47 42 159
4 46 38 40 42
4 49 50 52 48
4 237 175 176 178
4 181 233 177 176
4 180 179 231 104
4 207 103 65 211
4 207 103 68 65
4 65 66 103 68
4 103 66 97 93
4 66 103 97 63
4 213 104 63 238
4 238 97 103 63
4 104 102 103 238
4 104 106 212 230
4 214 212 106 230
4 214 212 216 106
4 214 212 217 216
4 214 212 230 217
4 226 217 230 212
4 226 60 230 57
4 181 60 57 230
4 179 105 104 230
4 179 105 101 104
4 104 239 103 101
4 239 101 240 100
4 91 241 240 100
4 241 239 240 100
4 239 241 103 100
4 103 210 93 241
4 103 207 93 210
4 210 103 231 239
4 103 239 104 231
4 103 104 63 65
4 65 66 63 103
4 65 66 68 69
4 68 72 66 93
4 96 98 242 97
4 85 96 99 243
4 85 86 99 74
4 86 89 99 74
4 88 86 244 92
4 74 86 92 87
4 201 244 87 92
4 244 86 87 92
4 90 74 92 94
4 94 95 206 245
4 95 209 206 245
4 245 207 95 209
4 208 232 231 211
4 180 104 231 62
4 181 60 107 57
4 54 175 51 178
4 50 52 174 54
4 246 36 52 247
4 246 36 37 35
4 52 31 36 35
4 31 39 52 36
4 39 46 222 41
4 39 222 174 220
4 174 218 220 221
4 218 219 54 220
4 225 219 220 54
4 56 110 54 57
4 110 56 59 57
4 60 59 226 228
4 60 226 213 228
4 57 217 230 226
4 214 217 230 218
4 218 57 230 177
4 181 105 230 177
4 179 60 181 230
4 58 107 180 60
4 229 107 58 248
4 229 107 180 58
4 60 58 59 62
4 58 107 56 248
4 108 56 109 55
4 108 56 55 248
4 107 56 55 57
4 107 181 57 178
4 57 181 177 178
4 181 176 177 178
4 233 181 177 105
4 249 239 101 240
4 91 89 241 100
4 89 91 241 90
4 210 245 93 241
4 245 241 90 93
4 93 94 90 245
4 74 202 92 94
4 205 204 94 206
4 202 198 199 203
4 202 198 186 199
4 199 197 200 250
4 199 186 187 198
4 200 186 188 187
4 184 189 186 188
4 201 189 87 244
4 189 201 78 186
4 201 78 79 87
4 189 78 184 186
4 186 79 187 198
4 74 201 79 87
4 74 79 84 87
4 79 78 84 87
4 77 78 84 79
4 74 77 84 79
4 74 85 84 76
4 83 243 76 85
4 85 96 243 76
4 73 96 74 76
4 96 93 74 99
4 89 93 99 74
4 93 94 74 90
4 93 94 245 95
4 207 95 68 93
4 95 70 68 93
4 95 70 74 205
4 74 70 182 205
4 94 95 74 205
4 241 89 90 93
4 104 179 231 239
4 181 60 180 107
4 107 57 55 178
4 57 54 55 178
4 53 49 51 52
4 40 49 113 52
4 155 47 223 48
4 45 47 159 156
4 119 156 45 159
4 120 44 119 121
4 16 173 124 154
4 166 167 169 145
4 145 7 147 251
4 9 7 252 149
4 253 254 252 255
4 256 253 255 254
4 6 9 252 255
4 253 257 149 252
4 7 258 259 260
4 260 261 251 170
4 169 260 251 170
4 169 251 167 170
4 166 167 145 171
4 16 22 18 130
4 25 24 20 23
4 24 25 118 28
4 119 156 118 45
4 119 28 45 118
4 119 45 44 158
4 44 38 28 29
4 25 28 26 30
4 25 24 26 28
4 24 20 234 163
4 162 24 234 163
4 163 119 118 25
4 235 135 133 136
4 135 134 140 133
4 145 141 153 144
4 145 260 169 151
4 0 258 4 5
4 259 258 262 263
4 264 259 262 263
4 258 7 262 0
4 260 258 259 261
4 258 261 263 259
4 261 258 263 265
4 261 260 251 259
4 167 251 169 145
4 145 260 251 169
4 166 167 171 168
4 16 171 153 140
4 137 135 136 134
4 138 135 235 136
4 235 138 136 164
4 236 119 156 164
4 157 156 159 47
4 155 47 48 40
4 40 49 48 155
4 46 52 174 48
4 247 225 220 54
4 110 225 57 227
4 60 59 57 226
4 104 61 211 62
4 232 211 62 231
4 103 104 211 231
4 239 210 103 241
4 241 93 103 100
4 68 72 93 70
4 103 207 68 93
4 207 103 211 210
4 210 208 231 211
4 103 210 231 211
4 245 207 210 93
4 245 207 209 210
4 245 207 93 95
4 70 95 74 93
4 70 73 74 182
4 182 203 183 74
4 202 74 205 94
4 93 89 90 74
4 89 241 100 93
4 93 98 103 100
4 101 104 102 103
4 104 101 102 106
4 106 238 104 212
4 266 216 212 106
4 106 238 212 266
4 106 238 102 104
4 267 266 238 102
4 97 102 267 238
4 106 238 266 102
4 97 102 238 103
4 97 102 103 98
4 97 102 98 267
4 97 98 242 267
4 96 98 99 242
4 89 98 99 93
4 239 101 100 103
4 104 179 239 101
4 179 249 239 101
4 105 179 101 249
4 233 105 249 179
4 177 181 57 230
4 175 57 177 178
4 175 237 51 178
4 55 54 51 178
4 112 111 109 53
4 112 53 52 113
4 117 115 113 114
4 116 118 117 161
4 115 116 117 161
4 28 115 161 32
4 29 32 26 34
4 26 30 29 27
4 34 26 29 27
4 29 34 31 32
4 31 115 32 35
4 31 115 28 32
4 246 112 52 35
4 246 247 52 54
4 247 110 225 54
4 59 227 57 226
4 213 104 238 212
4 104 103 63 238
4 97 98 103 93
4 70 73 72 74
4 71 182 268 73
4 182 75 268 73
4 182 75 183 268
4 183 81 268 75
4 182 75 74 183
4 79 81 183 75
4 79 81 80 194
4 78 192 80 82
4 192 193 80 82
4 269 193 192 82
4 193 192 80 185
4 80 79 194 185
4 77 74 75 79
4 85 96 76 74
4 96 243 242 99
4 98 102 103 100
4 104 105 106 230
4 214 218 230 177
4 50 175 51 54
4 49 155 223 48
4 157 156 236 159
4 236 119 159 156
4 235 119 164 136
4 236 119 164 235
4 133 235 120 123
4 120 235 133 119
4 135 123 235 133
4 124 173 123 126
4 173 172 126 154
4 166 171 154 172
4 172 171 154 173
4 171 16 154 173
4 171 166 154 153
4 16 171 154 153
4 124 173 16 133
4 124 173 133 123
4 25 133 119 121
4 19 16 133 21
4 163 19 133 21
4 134 19 133 136
4 133 119 136 163
4 133 19 163 136
4 132 20 18 19
4 20 132 234 19
4 20 19 163 21
4 22 20 21 18
4 16 22 21 18
4 128 129 127 21
4 160 129 21 127
4 160 21 25 127
4 25 20 21 23
4 25 27 23 160
4 25 27 30 26
4 23 22 21 160
4 16 129 21 22
4 128 130 165 270
4 128 130 270 129
4 128 130 16 165
4 16 165 153 154
4 17 16 14 153
4 131 17 18 14
4 17 141 153 15
4 12 10 15 153
4 15 17 14 153
4 153 16 14 130
4 16 129 22 130
4 128 130 129 16
4 16 128 165 154
4 151 166 153 165
4 260 145 7 151
4 9 6 252 7
4 7 262 252 149
4 260 259 7 251
4 7 259 147 251
4 264 259 271 149
4 259 7 147 149
4 146 148 147 149
4 271 259 147 149
4 148 271 147 149
4 146 142 143 141
4 144 141 140 139
4 141 134 140 139
4 143 141 144 139
4 142 145 141 146
4 145 142 141 144
4 148 142 143 146
4 145 7 10 146
4 145 150 151 153
4 151 272 150 7
4 151 272 273 150
4 151 272 4 273
4 4 272 2 273
4 151 272 7 4
4 4 260 7 151
4 166 145 151 153
4 166 145 169 151
4 171 166 153 145
4 133 16 140 173
4 124 16 21 133
4 25 21 160 23
4 21 129 160 22
4 121 21 124 127
4 121 120 133 119
4 123 121 125 120
4 123 121 120 133
4 25 133 121 21
4 25 20 163 21
4 118 24 28 161
4 26 28 161 32
4 40 115 28 31
4 115 52 113 112
4 246 112 109 52
4 246 52 109 54
4 56 54 109 55
4 56 107 55 248
4 58 60 59 57
4 63 61 65 104
4 68 72 70 67
4 182 75 73 74
4 77 79 75 80
4 196 79 185 194
4 79 78 185 80
4 77 78 82 84
4 83 77 82 84
4 77 74 84 76
4 96 74 93 72
4 103 66 93 68
4 65 66 69 63
4 63 61 104 213
4 61 60 104 213
4 59 227 226 228
4 274 110 227 225
4 246 36 247 37
4 246 36 35 52
4 52 115 40 31
4 28 31 38 40
4 44 42 158 45
4 120 44 122 158
4 135 133 140 173
4 171 16 173 140
4 171 144 153 140
4 141 144 140 153
4 10 141 15 153
4 10 12 15 13
4 10 8 12 13
4 8 10 12 11
4 8 9 11 255
4 9 253 149 252
4 257 262 149 252
4 262 259 149 7
4 258 7 4 260
4 259 258 7 262
4 262 0 7 252
4 0 6 7 252
4 254 6 252 255
4 0 3 6 252
4 6 3 254 252
4 272 6 11 7
4 4 6 272 7
4 4 6 2 272
4 9 6 11 255
4 9 253 252 255
4 262 264 257 149
4 257 264 275 271
4 259 264 262 149
4 257 264 271 149
4 9 146 7 149
4 10 7 11 9
4 7 12 10 11
4 145 150 153 12
4 12 145 10 153
4 145 146 10 141
4 145 142 147 146
4 171 145 153 144
4 171 142 145 144
4 142 171 145 167
4 142 145 147 167
4 167 145 147 251
4 145 260 7 251
4 145 150 12 7
4 12 145 7 10
4 12 152 153 14
4 152 153 14 130
4 152 151 153 165
4 165 152 276 270
4 152 151 165 276
4 165 152 270 130
4 152 151 276 150
4 276 150 151 273
4 272 7 11 150
4 7 12 11 150
4 153 150 152 12
4 165 16 153 130
4 165 152 130 153
4 15 12 153 14
4 13 131 14 15
4 17 131 15 14
4 17 132 18 19
4 25 24 163 20
4 25 24 118 163
4 119 156 164 118
4 118 117 45 156
4 155 45 117 156
4 113 40 117 155
4 50 49 224 48
4 49 50 224 51
4 50 237 224 51
4 237 50 175 51
4 52 54 220 174
4 52 247 220 54
4 39 247 220 52
4 39 247 52 36
4 115 52 35 31
4 40 115 52 113
4 40 115 113 117
4 115 112 113 114
4 53 52 51 54
4 54 53 109 55
4 52 53 109 54
4 110 246 109 54
4 247 110 54 246
4 247 110 274 225
4 246 274 37 247
4 247 110 246 274
4 110 225 54 57
4 57 217 226 219
4 57 217 218 230
4 219 218 54 57
4 218 54 174 220
4 46 39 52 40
4 39 31 52 40
4 38 42 45 40
4 28 38 44 45
4 121 25 44 119
4 123 135 173 133
4 134 153 140 16
4 134 16 140 133
4 137 135 134 140
4 134 153 141 140
4 134 153 16 17
4 16 17 19 134
4 134 153 17 141
4 153 145 10 141
4 6 9 11 7
4 258 7 0 4
4 1 0 2 5

CELL_TYPES 734
10
10
10
10
10
10
10
10
10
10
10
10
10
10
10
10
10
10
10
10
10
10
10
10
10
10
10
10
10
10
10
10
10
10
10
10
10
10
10
10
10
10
10
10
10
10
10
10
10
10
10
10
10
10
10
10
10
10
10
10
10
10
10
10
10
10
10
10
10
10
10
10
10
10
10
10
10
10
10
10
10
10
10
10
10
10
10
10
10
10
10
10
10
10
10
10
10
10
10
10
10
10
10
10
10
10
10
10
10
10
10
10
10
10
10
10
10
10
10
10
10
10
10
10
10
10
10
10
10
10
10
10
10
10
10
10
10
10
10
10
10
10
10
10
10
10
10
10
10
10
10
10
10
10
10
10
10
10
10
10
10
10
10
10
10
10
10
10
10
10
10
10
10
10
10
10
10
10
10
10
10
10
10
10
10
10
10
10
10
10
10
10
10
10
10
10
10
10
10
10
10
10
10
10
10
10
10
10
10
10
10
10
10
10
10
10
10
10
10
10
10
10
10
10
10
10
10
10
10
10
10
10
10
10
10
10
10
10
10
10
10
10
10
10
10
10
10
10
10
10
10
10
10
10
10
10
10
10
10
10
10
10
10
10
10
10
10
10
10
10
10
10
10
10
10
10
10
10
10
10
10
10
10
10
10
10
10
10
10
10
10
10
10
10
10
10
10
10
10
10
10
10
10
10
10
10
10
10
10
10
10
10
10
10
10
10
10
10
10
10
10
10
10
10
10
10
10
10
10
10
10
10
10
10
10
10
10
10
10
10
10
10
10
10
10
10
10
10
10
10
10
10
10
10
10
10
10
10
10
10
10
10
10
10
10
10
10
10
10
10
10
10
10
10
10
10
10
10
10
10
10
10
10
10
10
10
10
10
10
10
10
10
10
10
10
10
10
10
10
10
10
10
10
10
10
10
10
10
10
10
10
10
10
10
10
10
10
10
10
10
10
10
10
10
10
10
10
10
10
10
10
10
10
10
10
10
10
10
10
10
10
10
10
10
10
10
10
10
10
10
10
10
10
10
10
10
10
10
10
10
10
10
10
10
10
10
10
10
10
10
10
10
10
10
10
10
10
10
10
10
10
10
10
10
10
10
10
10
10
10
10
10
10
10
10
10
10
10
10
10
10
10
10
10
10
10
10
10
10
10
10
10
10
10
10
10
10
10
10
10
10
10
10
10
10
10
10
10
10
10
10
10
10
10
10
10
10
10
10
10
10
10
10
10
10
10
10
10
10
10
10
10
10
10
10
10
10
10
10
10
10
10
10
10
10
10
10
10
10
10
10
10
10
10
10
10
10
10
10
10
10
10
10
10
10
10
10
10
10
10
10
10
10
10
10
10
10
10
10
10
10
10
10
10
10
10
10
10
10
10
10
10
10
10
10
10
10
10
10
10
10
10
10
10
10
10
10
10
10
10
10
10
10
10
10
10
10
10
10
10
10
10
10
10
10
10
10
10
10
10
10
10
10
10
10
10
10
10
10
10
10
10
10
10
10
10
10
10
10
10
10
10
10
10
10
10
10
10
10
10
10
10
10
10
10
10
10
10
10
10
10
10
10
10
10
10
10
10
10
10
10
10
10
10
10
10
10
10
10
10
10
10
10
10
10
10
10
10
10
10
10
10
10
10
10
10
10
10
10
10
10
10
10
10

CELL_DATA 734
SCALARS potentialEnergy FLOAT 1
LOOKUP_TABLE default
54.154701
35.929447
33.866463
57.685432
78.097404
79.022079
141.055130
134.184143
133.123764
155.069321
127.509331
114.207687
49.772461
174.635391
117.377342
66.263447
60.363171
58.809803
171.608917
142.894791
113.709503
114.112640
145.688782
88.493378
32.182775
199.344696
208.197372
124.535873
48.475552
105.454140
57.047016
43.184284
46.212399
42.590324
38.058552
138.253464
53.198002
27.192429
21.293245
46.159733
31.630915
21.895941
73.129314
16.596871
31.574560
48.500397
55.544014
59.823151
28.808670
21.811467
117.694084
234.888138
146.142334
23.250175
115.373711
105.329117
109.768555
36.852114
68.074295
81.955338
88.694962
189.856155
192.684372
51.491547
60.076500
127.236763
54.468315
209.254349
79.714417
101.276070
29.532482
80.262444
118.798431
44.533669
31.207569
267.381439
113.950226
58.919506
78.304108
110.356728
119.329124
61.203499
46.182724
214.015549
155.778763
174.563171
182.529114
71.680851
72.467381
245.939087
72.325096
180.794708
58.643185
134.728302
131.263351
148.858902
101.317085
75.213829
100.194397
94.598152
62.378643
151.024857
101.288788
57.557716
105.199532
47.704712
39.624329
44.271893
133.211327
37.830246
70.660439
168.474487
99.274193
177.054016
319.348541
97.812149
100.951744
116.162277
29.779747
44.381947
167.943008
82.285545
73.358047
75.121666
82.999184
106.361954
71.366516
97.213814
71.427402
95.451187
206.117508
110.039803
87.576103
84.763031
16.049376
69.951721
50.637344
24.700780
78.370193
55.687584
35.574446
40.276764
160.182495
34.382084
128.768906
44.203018
85.987167
31.815660
71.255981
58.207005
122.007912
99.652649
90.991913
66.373108
15.890607
72.214588
116.736061
126.775536
43.617607
30.456326
71.583801
86.815399
86.546997
70.380054
55.623497
93.240623
68.440533
50.921940
65.238537
40.753214
71.634312
34.529398
114.296837
91.184166
60.429390
116.040375
82.125000
31.294695
102.298790
41.504751
48.973808
49.130795
47.346062
154.718567
287.012573
199.635513
120.369209
155.591660
51.191475
57.973194
151.290588
199.781036
45.985497
28.032358
199.998398
138.982452
129.996490
88.778831
106.833611
117.290077
271.943024
192.675598
76.104126
72.733559
60.663910
36.414064
49.694046
28.290710
45.043781
45.376762
32.676638
77.532280
122.926369
62.403755
30.846889
105.119347
115.631866
38.956757
57.843140
19.039176
26.352989
71.395592
30.445246
37.315752
47.285175
16.843916
321.585358
170.083862
317.350983
86.266953
179.148148
48.651783
30.123648
142.443130
117.337547
84.923164
114.515251
133.813362
121.667862
128.016472
155.294617
286.577362
134.739098
102.394295
43.736748
58.072071
85.593727
117.589630
108.333847
167.877899
72.586117
23.630570
114.154099
40.357718
25.162244
58.656822
56.765007
25.071115
52.869957
90.260918
82.809792
68.892086
38.289124
33.740995
181.245483
36.141251
82.034439
39.163794
72.657700
130.414230
220.564651
42.485298
54.185566
36.444973
121.466789
46.606960
116.488342
67.689396
26.739996
40.009474
74.573204
84.916771
49.049603
109.539047
36.878246
15.775258
46.882717
72.660221
70.572910
47.263615
76.337593
44.104893
177.877945
31.414734
76.932190
60.328804
109.639740
119.746361
182.634567
84.786034
185.613022
190.056381
88.200928
211.887405
121.787796
88.217712
121.357780
116.474037
63.707111
68.728870
51.267406
24.059120
71.207207
105.554268
45.527603
44.696445
31.170938
97.583519
40.366970
86.248795
57.473591
124.997246
58.232578
36.059149
41.350813
75.490601
51.667873
104.572296
105.547890
21.383857
58.075489
54.455612
51.100307
85.640785
102.728302
82.544586
95.251305
104.972809
66.016479
42.022030
37.679888
65.553406
43.147331
82.765594
38.657345
34.610115
20.585067
28.694893
69.344875
45.581730
34.861904
35.957102
41.331072
49.956715
43.070641
32.474150
128.138420
123.959892
74.987854
65.348774
23.412759
64.144081
78.583099
54.799324
84.234207
144.440018
38.619398
98.547859
56.853165
164.873688
120.548248
58.039959
35.939898
124.733749
28.328672
127.637169
65.977451
57.128941
62.600643
24.481670
53.498962
31.241137
35.995993
43.866188
344.026581
30.358973
65.783436
141.988144
68.538242
102.721794
97.001266
81.868942
32.524252
39.705242
109.681175
76.293404
98.078415
119.297913
63.340271
298.515350
74.855103
26.540775
33.646217
26.283583
21.338025
55.507946
40.052979
63.437984
30.757450
114.191811
42.959286
211.832947
43.420795
70.956913
75.523888
37.320913
75.864487
115.622429
103.589905
96.635292
263.343719
114.085693
227.762497
81.903519
99.597321
46.685295
51.948082
160.763641
137.470039
147.141281
169.820068
93.380348
48.707531
68.722759
164.882431
71.824474
164.413116
66.733704
53.588112
72.868706
89.064697
73.494286
107.182663
134.903526
82.321434
19.709269
69.559204
36.621964
41.720438
30.948595
125.499344
79.357735
27.882380
117.878815
91.470573
53.212315
113.537682
35.311619
78.438438
95.858788
88.378647
58.225430
22.854628
57.144699
63.209690
180.812943
135.393211
124.525551
50.368145
56.996857
83.625801
42.769367
78.948288
89.314812
190.883896
102.238708
309.431488
113.729431
69.691078
84.202881
93.348167
34.893267
148.209686
219.445648
42.727703
111.947685
224.653015
41.273287
61.213951
44.545536
19.001637
44.152248
30.380680
61.114929
95.075005
61.604309
40.785009
73.096802
39.597542
85.323151
32.397430
27.457047
134.835403
115.700310
30.252817
39.065861
140.950058
34.394472
206.596970
109.041206
32.914774
72.209312
83.946358
69.209354
63.197418
94.610535
52.791386
75.418419
53.702564
43.768135
78.453201
45.128292
145.086426
159.905273
166.770264
78.548500
144.881607
154.399307
81.397324
121.087936
47.442310
125.036720
119.189072
32.754066
30.175406
141.292618
53.072830
41.373028
58.482868
76.460251
70.410713
50.819523
22.338260
93.416153
52.279408
55.675266
48.206661
67.241581
55.330441
132.958344
127.271362
166.555191
30.198359
44.680386
19.051541
152.799622
191.148224
25.407723
75.409584
39.955822
31.953945
39.761108
38.204687
123.986900
233.753571
30.680347
106.182312
96.380028
61.598045
45.319740
108.419418
139.075134
227.041901
111.357246
54.487160
51.300972
61.524391
27.151165
33.432991
20.531827
49.882683
62.096668
89.578232
110.162613
235.545975
78.976364
75.632332
51.652065
46.002739
46.722790
127.731247
92.700012
168.249115
122.774384
160.439346
130.560844
129.810745
175.094223
100.299026
41.892279
22.603288
245.102966
19.415122
51.120579
41.547930
72.674191
62.683426
34.344431
72.631474
39.430424
27.953812
33.886208
44.181381
31.645163
154.162399
52.561207
24.850281
36.514141
184.517151
29.767212
40.473618
131.711952
166.095795
105.155136
140.250626
58.732971
51.359375
40.791409
85.645844
117.419785
97.879776
54.473789
171.736267
108.282349
70.685986
65.701832
29.165934
38.799662
48.111683
40.817009
18.235410
109.495308
40.413597
83.970398
81.300529
72.028328
67.655804
55.248028
31.300564
64.680820
29.545437
20.597455
51.088287
23.571062
91.975517
125.514389
187.451309
69.462078
178.369339
66.559414
297.772125
190.672318
248.012695
225.192551
122.218765
145.403717
42.689560
113.443077
160.455887
318.632294
105.628609
145.374069
88.228020
91.284843
68.266216
169.611465
70.258381
41.685152
82.221390
145.506821
31.089716
103.161819
298.257446
185.896057
127.292656
120.173592
233.943909
79.206299
52.424274
57.949635
66.248264
55.456726
207.093506
41.537718
140.468124
65.264965
98.023888
125.241432
154.992065
99.295456
148.432236
124.012497
202.763000
59.899429
21.967381
317.856689
27.315329
81.421165
183.214340
62.837872
123.397919
69.259521
336.448639
140.484650
112.589134
194.727432
275.262146
195.779114
189.114105
177.794891
81.060417
74.405479
88.778709
66.146988
89.096977
61.496677
86.650101
78.739120
199.354370
101.148460
83.900124
37.476723
50.258236
44.688946

