# vtk DataFile Version 3.1
Tetrahedral Mesh Visualization
ASCII
DATASET UNSTRUCTURED_GRID

POINTS 277 FLOAT
0.000000 1.378113 1.754166
0.000000 0.000000 0.000000
2.001225 -0.008342 -0.000174
0.000000 1.666667 0.000000
2.420120 -0.002551 1.734569
0.000000 0.000000 1.666667
1.692184 2.460850 -0.003639
2.998522 2.455147 2.319227
3.987887 4.985787 -0.026706
3.071930 4.997602 1.632461
5.199164 4.996851 1.577493
3.481587 3.166095 -0.015852
5.399988 3.298096 -0.026077
5.987635 4.996114 -0.035887
7.368427 3.339704 -0.040519
6.960737 5.001872 1.277212
9.254938 2.194044 1.988297
8.690214 5.008841 1.569656
9.361303 3.350002 -0.035439
10.663096 5.016291 1.626780
11.362566 3.354572 -0.024870
11.121565 1.884657 1.525670
10.695011 1.689717 -0.032777
12.697369 1.682611 -0.010921
13.371108 3.348940 0.002986
12.986016 1.886733 1.481055
14.705743 1.678789 0.008776
14.033268 0.013759 -0.011634
15.481958 2.147246 1.708308
15.346674 0.005643 1.656705
13.343839 0.007566 1.641755
17.306343 -0.000494 1.652298
16.715967 1.684797 0.045494
18.042980 0.031499 0.047804
16.045898 0.019482 0.015338
18.717669 1.698454 0.085241
19.020910 0.015214 1.392408
20.039949 0.042859 0.083656
16.713648 -0.014304 3.329729
18.985209 -0.009821 3.187575
17.695967 2.675302 3.022763
17.945419 -0.032875 5.052762
16.633274 1.636593 5.041309
15.951386 -0.027567 5.015149
14.666455 -0.007186 3.316629
15.759995 2.880447 3.383706
18.680950 1.665162 5.085927
17.270617 3.307734 5.076262
19.236452 3.359922 5.116455
19.318167 4.989774 3.468492
20.948822 3.648149 5.158072
21.321325 4.990816 3.516590
19.629839 2.497451 2.471836
20.681873 5.020594 1.840327
21.907621 2.504376 2.633167
22.685345 5.006284 1.894062
23.347231 3.436628 0.205227
23.964539 2.435093 2.502932
25.059620 3.709308 0.259457
25.042643 1.923015 0.216849
25.989468 2.479083 1.994525
27.306305 1.686332 0.287865
26.763910 3.385040 0.297161
29.259926 -0.067746 1.944682
28.034983 -0.024793 0.289778
29.356499 1.629975 0.367555
30.989422 -0.073843 1.708152
32.033096 -0.047558 0.416566
31.353165 1.620900 0.428813
30.037745 -0.038817 0.356088
33.310074 1.596983 0.466209
34.029774 -0.057497 0.458953
32.676838 -0.083821 2.045725
34.596794 -0.086173 2.148732
34.985321 2.300719 3.032143
36.509136 -0.083723 2.308428
35.110504 -0.114057 3.855621
36.800995 -0.110780 4.038896
38.248768 2.377503 5.538710
37.691353 2.071320 2.713421
38.286816 -0.103731 3.039168
38.030827 -0.072198 0.500528
37.945198 -0.135488 5.511008
35.942825 -0.133515 5.484533
36.509800 1.610477 5.511040
34.878590 1.196880 5.479698
34.799904 2.990412 5.499194
36.711956 3.341226 5.529097
33.969635 4.856680 5.532884
32.644295 3.162779 5.477689
33.268360 4.892805 3.873357
31.958632 4.854561 5.505207
35.153637 4.887459 3.936920
32.201904 2.508140 2.891075
34.620499 4.917803 2.242115
32.686501 3.283188 0.488009
33.172340 -0.110350 3.751890
30.947378 -0.106587 3.494213
31.251345 1.517643 5.414373
33.189278 1.464044 5.461379
30.611553 3.188586 5.430785
28.598715 3.209553 5.364594
29.253635 1.538131 5.347450
30.013777 2.407035 2.874986
27.949709 2.427466 2.801286
26.598860 3.233479 5.293506
27.251083 1.558931 5.282993
24.684082 4.991096 1.941709
22.064030 5.046457 0.217802
21.387272 3.390676 0.164294
22.776194 1.750745 0.156053
20.054104 5.041736 0.162712
19.388639 3.372066 0.125717
18.674097 5.006092 1.789471
18.051291 5.018764 0.105785
17.382450 3.349886 0.077323
16.047590 5.008345 0.055344
16.674997 5.003085 1.737253
14.672315 5.008973 1.691322
13.686326 2.964479 3.267303
12.967694 1.317274 4.978264
12.656772 -0.006707 3.303261
13.964992 -0.010102 4.982192
11.263850 1.614258 4.968689
10.651640 0.009146 3.295254
11.977481 -0.013684 4.966585
9.985152 0.004514 4.960670
11.334378 0.013993 1.630854
9.318528 0.019997 1.623665
10.021712 0.025239 -0.042260
8.697360 1.681191 -0.038912
8.006302 5.007660 -0.042492
10.018111 5.016561 -0.030808
11.219908 2.651298 3.252822
9.254591 5.017190 3.260341
10.727499 3.316966 4.968865
11.305507 5.010352 3.299562
9.996509 5.010413 4.965788
11.983982 5.006587 4.982807
7.993807 5.012949 4.945128
8.736230 3.402923 4.956851
6.958409 5.007916 3.067000
5.357468 3.375551 4.982203
6.001377 5.007022 4.970090
7.027306 3.691303 4.963540
5.141854 2.377235 3.122008
4.616589 4.999447 3.269061
3.485872 3.192171 4.994475
3.999457 5.000669 4.983931
2.368938 5.002381 3.271256
4.839771 1.600549 -0.013259
4.910022 0.000441 1.863317
6.731488 1.664729 -0.029546
7.011416 2.573684 2.156947
8.650933 0.017656 3.296038
17.319237 4.985258 3.422975
15.321179 5.001664 3.367874
15.965227 4.985637 5.055316
14.674948 1.597810 5.005351
15.229853 3.294662 5.026080
12.024739 0.019092 -0.024620
15.374382 3.345522 0.030610
14.038443 5.015049 0.019117
12.667306 5.014603 1.653840
13.316638 5.005975 3.330104
7.249341 0.012232 1.657290
6.669137 0.011198 3.348485
4.912843 1.654687 4.987432
6.003275 0.013474 4.978580
4.914467 0.006285 3.646912
4.007621 -0.001534 4.986887
7.047926 1.899817 4.965769
7.997815 0.013053 4.961426
9.270217 1.704834 4.965316
20.942719 1.854201 5.133715
22.651117 3.339304 5.195739
23.959740 4.930848 5.263497
24.602032 3.265779 5.245871
23.317417 4.974501 3.576761
27.316135 4.923265 3.682016
26.690367 4.957979 1.994645
25.312946 4.945052 3.626026
35.195126 1.548508 0.489017
36.879513 1.393607 0.505654
39.986706 3.111564 4.193030
39.991100 1.512552 3.148442
38.315868 4.888095 3.100486
40.016090 3.137983 2.466564
39.995537 4.866642 3.940058
37.963390 4.850561 5.567052
39.957546 4.848481 5.613989
39.961128 3.176296 5.572253
39.947899 1.509630 5.548504
39.964207 -0.131834 3.865525
39.992226 -0.103133 2.197414
40.026924 -0.093009 0.533219
40.040966 1.578131 0.552908
40.049427 3.240588 0.563645
38.354561 2.388551 0.534473
38.058861 4.915842 0.560933
40.033825 4.880189 2.264443
36.823704 4.883037 4.094787
36.532127 4.903214 2.363592
36.558495 3.114325 0.519324
36.050461 4.933190 0.539682
34.640369 3.249214 0.510929
34.060734 4.951462 0.540395
30.708803 3.297126 0.446388
30.073812 4.968759 0.457156
32.067886 4.961888 0.512922
30.678869 4.930886 2.143552
28.721943 3.310001 0.371138
26.670547 -0.066590 3.616930
27.247169 -0.039310 1.941020
25.241848 1.589195 5.224051
23.922953 -0.065730 5.150788
25.913326 -0.092146 5.208352
24.946785 -0.051691 3.848998
23.197056 1.640149 5.171055
23.232496 -0.033748 3.522723
21.233383 -0.016521 3.417623
21.929510 -0.046965 5.124872
19.942085 -0.033625 5.098996
17.959707 4.969724 5.103012
19.956337 4.965491 5.151597
22.732155 0.009319 1.811916
24.982374 -0.010890 2.056306
24.027124 0.044414 0.142535
26.025839 0.016375 0.205965
26.078995 5.011966 0.315357
25.666344 2.177897 3.735059
28.689970 4.935681 2.067122
28.077696 4.972559 0.376130
25.955187 4.904331 5.307910
12.031171 5.016227 -0.016709
12.976308 3.114125 4.990778
13.973766 5.003461 5.010816
21.959135 4.959503 5.199497
28.678791 -0.091531 3.614224
29.314318 4.892908 3.757807
29.948479 4.858799 5.444243
31.301237 4.891332 3.826858
31.927649 -0.133140 5.409632
33.939152 -0.136563 5.448268
35.968243 4.854235 5.556097
32.661789 4.925221 2.195100
20.728029 1.718298 0.120714
20.729198 0.013082 1.710360
24.069914 5.034941 0.257327
27.946922 4.888525 5.369215
40.054565 4.894833 0.582680
3.187333 1.467993 4.995306
0.000000 3.103853 1.750106
0.000000 5.000000 1.666667
0.000000 3.333333 0.000000
1.999455 4.994973 -0.011609
0.000000 5.000000 0.000000
0.000000 5.000000 3.333333
0.000000 0.000000 3.333333
1.698418 2.472579 4.996073
3.041144 0.001966 3.383303
2.005674 0.005548 4.995121
0.000000 2.403264 3.370902
0.000000 1.666667 5.000000
0.000000 3.333333 5.000000
0.000000 0.000000 5.000000
27.907047 -0.111223 5.282142
29.916216 -0.126545 5.343799
36.033726 -0.053412 0.481269
39.939007 -0.164683 5.529447
8.009356 0.020706 -0.043089
2.000635 5.005414 4.990890
3.162687 1.440693 -0.000848
4.000086 -0.016595 -0.001354
22.032955 0.055831 0.109670
0.000000 5.000000 5.000000
6.006701 0.009686 -0.022387

CELLS 734 3670
4 0 1 2 3
4 0 4 2 5
4 0 3 2 6
4 4 6 0 2
4 4 6 7 0
4 8 9 10 11
4 12 13 14 15
4 16 17 14 18
4 19 20 18 21
4 20 22 21 23
4 24 25 26 23
4 25 27 26 23
4 26 28 29 30
4 28 29 31 32
4 33 34 32 31
4 31 33 35 32
4 31 33 36 35
4 33 37 36 35
4 38 39 40 31
4 41 42 43 38
4 44 42 45 38
4 44 42 38 43
4 46 38 42 41
4 46 47 40 48
4 49 50 51 52
4 53 54 51 55
4 56 54 55 57
4 56 58 59 57
4 60 59 61 62
4 63 61 64 65
4 66 67 68 69
4 67 70 71 72
4 73 74 75 76
4 74 77 75 76
4 77 78 79 80
4 79 81 75 80
4 77 78 80 82
4 77 83 76 84
4 83 85 76 84
4 85 86 74 84
4 74 86 87 84
4 88 89 86 90
4 91 89 88 90
4 86 88 90 92
4 90 86 92 74
4 86 89 74 90
4 93 94 95 74
4 70 74 72 93
4 70 73 71 72
4 74 96 73 72
4 66 97 93 72
4 96 97 72 93
4 96 98 97 93
4 85 96 74 99
4 96 98 93 99
4 98 89 100 93
4 101 102 100 103
4 104 105 101 106
4 107 58 57 60
4 58 107 57 56
4 53 108 109 55
4 56 110 109 54
4 53 111 109 108
4 112 53 109 52
4 111 112 113 53
4 112 111 113 114
4 115 116 114 117
4 40 28 115 117
4 45 117 118 28
4 119 28 25 44
4 120 44 121 122
4 123 121 124 125
4 125 123 126 124
4 127 128 21 124
4 16 129 128 21
4 16 18 14 130
4 16 17 18 19
4 131 17 132 18
4 16 19 18 21
4 133 16 19 134
4 135 134 133 136
4 135 137 136 138
4 137 134 139 140
4 141 142 143 144
4 145 146 147 7
4 142 148 147 146
4 7 146 147 149
4 10 7 9 146
4 145 150 7 151
4 152 151 150 153
4 16 128 154 124
4 124 21 121 133
4 25 28 30 44
4 28 38 45 40
4 45 47 40 42
4 155 45 156 47
4 157 156 47 155
4 155 45 40 117
4 45 42 158 159
4 44 42 43 158
4 119 45 158 159
4 120 44 158 119
4 25 127 21 121
4 25 27 160 30
4 127 25 160 30
4 25 127 121 30
4 44 25 121 30
4 28 30 44 29
4 119 28 44 45
4 119 28 118 25
4 28 24 26 161
4 26 32 29 28
4 28 31 29 38
4 46 38 41 39
4 46 38 39 40
4 28 117 40 45
4 118 28 117 161
4 162 24 118 161
4 118 119 163 164
4 136 119 164 163
4 25 133 21 163
4 128 16 21 124
4 165 166 153 154
4 166 167 168 169
4 167 168 169 170
4 171 168 172 166
4 124 173 126 154
4 123 121 133 124
4 120 125 122 121
4 122 158 44 43
4 47 46 40 42
4 52 50 174 48
4 175 50 174 54
4 176 175 177 178
4 179 60 180 181
4 64 69 63 65
4 68 72 67 66
4 70 73 182 71
4 74 79 183 75
4 184 78 185 79
4 79 184 186 187
4 186 184 188 187
4 184 189 190 191
4 184 78 79 186
4 78 189 184 191
4 189 184 190 188
4 184 78 191 192
4 184 78 192 185
4 192 78 80 185
4 193 80 194 185
4 195 81 196 194
4 81 79 196 194
4 197 187 196 198
4 187 79 185 196
4 79 184 187 185
4 197 199 187 198
4 199 197 187 200
4 199 200 187 186
4 78 201 79 186
4 189 201 87 78
4 202 201 79 74
4 201 74 92 87
4 201 202 92 74
4 201 202 79 186
4 202 203 74 79
4 202 198 203 79
4 204 202 199 203
4 202 203 205 74
4 202 204 205 203
4 182 203 74 205
4 74 203 183 79
4 79 203 183 198
4 79 81 198 183
4 81 79 198 196
4 187 79 196 198
4 202 198 79 186
4 202 204 94 205
4 94 95 205 206
4 207 208 209 210
4 208 207 211 210
4 104 103 211 65
4 104 60 212 213
4 214 215 216 217
4 218 219 220 221
4 222 174 220 221
4 46 39 222 174
4 52 46 40 48
4 40 49 52 48
4 53 49 52 113
4 40 49 155 113
4 155 45 47 40
4 157 47 223 155
4 49 223 224 48
4 52 50 51 54
4 175 54 57 178
4 218 175 54 57
4 225 219 54 57
4 218 175 57 177
4 57 217 219 218
4 219 225 226 57
4 225 227 226 57
4 59 110 57 227
4 59 60 61 228
4 61 60 213 228
4 64 61 213 228
4 63 61 213 64
4 61 104 211 65
4 180 60 104 62
4 58 229 62 180
4 58 60 180 62
4 60 61 104 62
4 60 226 230 212
4 226 60 213 212
4 60 104 212 230
4 179 60 230 104
4 104 211 231 62
4 180 229 62 232
4 180 232 62 231
4 179 60 104 180
4 233 181 105 179
4 181 105 179 230
4 105 214 106 230
4 105 214 230 177
4 215 214 218 217
4 215 217 218 219
4 218 215 219 221
4 218 175 174 54
4 39 52 220 174
4 39 46 52 174
4 115 52 112 35
4 28 115 117 161
4 162 118 116 161
4 24 162 118 163
4 20 19 234 163
4 25 133 163 119
4 120 119 158 235
4 236 119 235 159
4 235 119 158 159
4 119 235 133 136
4 138 235 236 164
4 45 47 42 159
4 46 38 40 42
4 49 50 52 48
4 237 175 176 178
4 181 233 177 176
4 180 179 231 104
4 207 103 65 211
4 207 103 68 65
4 65 66 103 68
4 103 66 97 93
4 66 103 97 63
4 213 104 63 238
4 238 97 103 63
4 104 102 103 238
4 104 106 212 230
4 214 212 106 230
4 214 212 216 106
4 214 212 217 216
4 214 212 230 217
4 226 217 230 212
4 226 60 230 57
4 181 60 57 230
4 179 105 104 230
4 179 105 101 104
4 104 239 103 101
4 239 101 240 100
4 91 241 240 100
4 241 239 240 100
4 239 241 103 100
4 103 210 93 241
4 103 207 93 210
4 210 103 231 239
4 103 239 104 231
4 103 104 63 65
4 65 66 63 103
4 65 66 68 69
4 68 72 66 93
4 96 98 242 97
4 85 96 99 243
4 85 86 99 74
4 86 89 99 74
4 88 86 244 92
4 74 86 92 87
4 201 244 87 92
4 244 86 87 92
4 90 74 92 94
4 94 95 206 245
4 95 209 206 245
4 245 207 95 209
4 208 232 231 211
4 180 104 231 62
4 181 60 107 57
4 54 175 51 178
4 50 52 174 54
4 246 36 52 247
4 246 36 37 35
4 52 31 36 35
4 31 39 52 36
4 39 46 222 41
4 39 222 174 220
4 174 218 220 221
4 218 219 54 220
4 225 219 220 54
4 56 110 54 57
4 110 56 59 57
4 60 59 226 228
4 60 226 213 228
4 57 217 230 226
4 214 217 230 218
4 218 57 230 177
4 181 105 230 177
4 179 60 181 230
4 58 107 180 60
4 229 107 58 248
4 229 107 180 58
4 60 58 59 62
4 58 107 56 248
4 108 56 109 55
4 108 56 55 248
4 107 56 55 57
4 107 181 57 178
4 57 181 177 178
4 181 176 177 178
4 233 181 177 105
4 249 239 101 240
4 91 89 241 100
4 89 91 241 90
4 210 245 93 241
4 245 241 90 93
4 93 94 90 245
4 74 202 92 94
4 205 204 94 206
4 202 198 199 203
4 202 198 186 199
4 199 197 200 250
4 199 186 187 198
4 200 186 188 187
4 184 189 186 188
4 201 189 87 244
4 189 201 78 186
4 201 78 79 87
4 189 78 184 186
4 186 79 187 198
4 74 201 79 87
4 74 79 84 87
4 79 78 84 87
4 77 78 84 79
4 74 77 84 79
4 74 85 84 76
4 83 243 76 85
4 85 96 243 76
4 73 96 74 76
4 96 93 74 99
4 89 93 99 74
4 93 94 74 90
4 93 94 245 95
4 207 95 68 93
4 95 70 68 93
4 95 70 74 205
4 74 70 182 205
4 94 95 74 205
4 241 89 90 93
4 104 179 231 239
4 181 60 180 107
4 107 57 55 178
4 57 54 55 178
4 53 49 51 52
4 40 49 113 52
4 155 47 223 48
4 45 47 159 156
4 119 156 45 159
4 120 44 119 121
4 16 173 124 154
4 166 167 169 145
4 145 7 147 251
4 9 7 252 149
4 253 254 252 255
4 256 253 255 254
4 6 9 252 255
4 253 257 149 252
4 7 258 259 260
4 260 261 251 170
4 169 260 251 170
4 169 251 167 170
4 166 167 145 171
4 16 22 18 130
4 25 24 20 23
4 24 25 118 28
4 119 156 118 45
4 119 28 45 118
4 119 45 44 158
4 44 38 28 29
4 25 28 26 30
4 25 24 26 28
4 24 20 234 163
4 162 24 234 163
4 163 119 118 25
4 235 135 133 136
4 135 134 140 133
4 145 141 153 144
4 145 260 169 151
4 0 258 4 5
4 259 258 262 263
4 264 259 262 263
4 258 7 262 0
4 260 258 259 261
4 258 261 263 259
4 261 258 263 265
4 261 260 251 259
4 167 251 169 145
4 145 260 251 169
4 166 167 171 168
4 16 171 153 140
4 137 135 136 134
4 138 135 235 136
4 235 138 136 164
4 236 119 156 164
4 157 156 159 47
4 155 47 48 40
4 40 49 48 155
4 46 52 174 48
4 247 225 220 54
4 110 225 57 227
4 60 59 57 226
4 104 61 211 62
4 232 211 62 231
4 103 104 211 231
4 239 210 103 241
4 241 93 103 100
4 68 72 93 70
4 103 207 68 93
4 207 103 211 210
4 210 208 231 211
4 103 210 231 211
4 245 207 210 93
4 245 207 209 210
4 245 207 93 95
4 70 95 74 93
4 70 73 74 182
4 182 203 183 74
4 202 74 205 94
4 93 89 90 74
4 89 241 100 93
4 93 98 103 100
4 101 104 102 103
4 104 101 102 106
4 106 238 104 212
4 266 216 212 106
4 106 238 212 266
4 106 238 102 104
4 267 266 238 102
4 97 102 267 238
4 106 238 266 102
4 97 102 238 103
4 97 102 103 98
4 97 102 98 267
4 97 98 242 267
4 96 98 99 242
4 89 98 99 93
4 239 101 100 103
4 104 179 239 101
4 179 249 239 101
4 105 179 101 249
4 233 105 249 179
4 177 181 57 230
4 175 57 177 178
4 175 237 51 178
4 55 54 51 178
4 112 111 109 53
4 112 53 52 113
4 117 115 113 114
4 116 118 117 161
4 115 116 117 161
4 28 115 161 32
4 29 32 26 34
4 26 30 29 27
4 34 26 29 27
4 29 34 31 32
4 31 115 32 35
4 31 115 28 32
4 246 112 52 35
4 246 247 52 54
4 247 110 225 54
4 59 227 57 226
4 213 104 238 212
4 104 103 63 238
4 97 98 103 93
4 70 73 72 74
4 71 182 268 73
4 182 75 268 73
4 182 75 183 268
4 183 81 268 75
4 182 75 74 183
4 79 81 183 75
4 79 81 80 194
4 78 192 80 82
4 192 193 80 82
4 269 193 192 82
4 193 192 80 185
4 80 79 194 185
4 77 74 75 79
4 85 96 76 74
4 96 243 242 99
4 98 102 103 100
4 104 105 106 230
4 214 218 230 177
4 50 175 51 54
4 49 155 223 48
4 157 156 236 159
4 236 119 159 156
4 235 119 164 136
4 236 119 164 235
4 133 235 120 123
4 120 235 133 119
4 135 123 235 133
4 124 173 123 126
4 173 172 126 154
4 166 171 154 172
4 172 171 154 173
4 171 16 154 173
4 171 166 154 153
4 16 171 154 153
4 124 173 16 133
4 124 173 133 123
4 25 133 119 121
4 19 16 133 21
4 163 19 133 21
4 134 19 133 136
4 133 119 136 163
4 133 19 163 136
4 132 20 18 19
4 20 132 234 19
4 20 19 163 21
4 22 20 21 18
4 16 22 21 18
4 128 129 127 21
4 160 129 21 127
4 160 21 25 127
4 25 20 21 23
4 25 27 23 160
4 25 27 30 26
4 23 22 21 160
4 16 129 21 22
4 128 130 165 270
4 128 130 270 129
4 128 130 16 165
4 16 165 153 154
4 17 16 14 153
4 131 17 18 14
4 17 141 153 15
4 12 10 15 153
4 15 17 14 153
4 153 16 14 130
4 16 129 22 130
4 128 130 129 16
4 16 128 165 154
4 151 166 153 165
4 260 145 7 151
4 9 6 252 7
4 7 262 252 149
4 260 259 7 251
4 7 259 147 251
4 264 259 271 149
4 259 7 147 149
4 146 148 147 149
4 271 259 147 149
4 148 271 147 149
4 146 142 143 141
4 144 141 140 139
4 141 134 140 139
4 143 141 144 139
4 142 145 141 146
4 145 142 141 144
4 148 142 143 146
4 145 7 10 146
4 145 150 151 153
4 151 272 150 7
4 151 272 273 150
4 151 272 4 273
4 4 272 2 273
4 151 272 7 4
4 4 260 7 151
4 166 145 151 153
4 166 145 169 151
4 171 166 153 145
4 133 16 140 173
4 124 16 21 133
4 25 21 160 23
4 21 129 160 22
4 121 21 124 127
4 121 120 133 119
4 123 121 125 120
4 123 121 120 133
4 25 133 121 21
4 25 20 163 21
4 118 24 28 161
4 26 28 161 32
4 40 115 28 31
4 115 52 113 112
4 246 112 109 52
4 246 52 109 54
4 56 54 109 55
4 56 107 55 248
4 58 60 59 57
4 63 61 65 104
4 68 72 70 67
4 182 75 73 74
4 77 79 75 80
4 196 79 185 194
4 79 78 185 80
4 77 78 82 84
4 83 77 82 84
4 77 74 84 76
4 96 74 93 72
4 103 66 93 68
4 65 66 69 63
4 63 61 104 213
4 61 60 104 213
4 59 227 226 228
4 274 110 227 225
4 246 36 247 37
4 246 36 35 52
4 52 115 40 31
4 28 31 38 40
4 44 42 158 45
4 120 44 122 158
4 135 133 140 173
4 171 16 173 140
4 171 144 153 140
4 141 144 140 153
4 10 141 15 153
4 10 12 15 13
4 10 8 12 13
4 8 10 12 11
4 8 9 11 255
4 9 253 149 252
4 257 262 149 252
4 262 259 149 7
4 258 7 4 260
4 259 258 7 262
4 262 0 7 252
4 0 6 7 252
4 254 6 252 255
4 0 3 6 252
4 6 3 254 252
4 272 6 11 7
4 4 6 272 7
4 4 6 2 272
4 9 6 11 255
4 9 253 252 255
4 262 264 257 149
4 257 264 275 271
4 259 264 262 149
4 257 264 271 149
4 9 146 7 149
4 10 7 11 9
4 7 12 10 11
4 145 150 153 12
4 12 145 10 153
4 145 146 10 141
4 145 142 147 146
4 171 145 153 144
4 171 142 145 144
4 142 171 145 167
4 142 145 147 167
4 167 145 147 251
4 145 260 7 251
4 145 150 12 7
4 12 145 7 10
4 12 152 153 14
4 152 153 14 130
4 152 151 153 165
4 165 152 276 270
4 152 151 165 276
4 165 152 270 130
4 152 151 276 150
4 276 150 151 273
4 272 7 11 150
4 7 12 11 150
4 153 150 152 12
4 165 16 153 130
4 165 152 130 153
4 15 12 153 14
4 13 131 14 15
4 17 131 15 14
4 17 132 18 19
4 25 24 163 20
4 25 24 118 163
4 119 156 164 118
4 118 117 45 156
4 155 45 117 156
4 113 40 117 155
4 50 49 224 48
4 49 50 224 51
4 50 237 224 51
4 237 50 175 51
4 52 54 220 174
4 52 247 220 54
4 39 247 220 52
4 39 247 52 36
4 115 52 35 31
4 40 115 52 113
4 40 115 113 117
4 115 112 113 114
4 53 52 51 54
4 54 53 109 55
4 52 53 109 54
4 110 246 109 54
4 247 110 54 246
4 247 110 274 225
4 246 274 37 247
4 247 110 246 274
4 110 225 54 57
4 57 217 226 219
4 57 217 218 230
4 219 218 54 57
4 218 54 174 220
4 46 39 52 40
4 39 31 52 40
4 38 42 45 40
4 28 38 44 45
4 121 25 44 119
4 123 135 173 133
4 134 153 140 16
4 134 16 140 133
4 137 135 134 140
4 134 153 141 140
4 134 153 16 17
4 16 17 19 134
4 134 153 17 141
4 153 145 10 141
4 6 9 11 7
4 258 7 0 4
4 1 0 2 5

CELL_TYPES 734
10
10
10
10
10
10
10
10
10
10
10
10
10
10
10
10
10
10
10
10
10
10
10
10
10
10
10
10
10
10
10
10
10
10
10
10
10
10
10
10
10
10
10
10
10
10
10
10
10
10
10
10
10
10
10
10
10
10
10
10
10
10
10
10
10
10
10
10
10
10
10
10
10
10
10
10
10
10
10
10
10
10
10
10
10
10
10
10
10
10
10
10
10
10
10
10
10
10
10
10
10
10
10
10
10
10
10
10
10
10
10
10
10
10
10
10
10
10
10
10
10
10
10
10
10
10
10
10
10
10
10
10
10
10
10
10
10
10
10
10
10
10
10
10
10
10
10
10
10
10
10
10
10
10
10
10
10
10
10
10
10
10
10
10
10
10
10
10
10
10
10
10
10
10
10
10
10
10
10
10
10
10
10
10
10
10
10
10
10
10
10
10
10
10
10
10
10
10
10
10
10
10
10
10
10
10
10
10
10
10
10
10
10
10
10
10
10
10
10
10
10
10
10
10
10
10
10
10
10
10
10
10
10
10
10
10
10
10
10
10
10
10
10
10
10
10
10
10
10
10
10
10
10
10
10
10
10
10
10
10
10
10
10
10
10
10
10
10
10
10
10
10
10
10
10
10
10
10
10
10
10
10
10
10
10
10
10
10
10
10
10
10
10
10
10
10
10
10
10
10
10
10
10
10
10
10
10
10
10
10
10
10
10
10
10
10
10
10
10
10
10
10
10
10
10
10
10
10
10
10
10
10
10
10
10
10
10
10
10
10
10
10
10
10
10
10
10
10
10
10
10
10
10
10
10
10
10
10
10
10
10
10
10
10
10
10
10
10
10
10
10
10
10
10
10
10
10
10
10
10
10
10
10
10
10
10
10
10
10
10
10
10
10
10
10
10
10
10
10
10
10
10
10
10
10
10
10
10
10
10
10
10
10
10
10
10
10
10
10
10
10
10
10
10
10
10
10
10
10
10
10
10
10
10
10
10
10
10
10
10
10
10
10
10
10
10
10
10
10
10
10
10
10
10
10
10
10
10
10
10
10
10
10
10
10
10
10
10
10
10
10
10
10
10
10
10
10
10
10
10
10
10
10
10
10
10
10
10
10
10
10
10
10
10
10
10
10
10
10
10
10
10
10
10
10
10
10
10
10
10
10
10
10
10
10
10
10
10
10
10
10
10
10
10
10
10
10
10
10
10
10
10
10
10
10
10
10
10
10
10
10
10
10
10
10
10
10
10
10
10
10
10
10
10
10
10
10
10
10
10
10
10
10
10
10
10
10
10
10
10
10
10
10
10
10
10
10
10
10
10
10
10
10
10
10
10
10
10
10
10
10
10
10
10
10
10
10
10
10
10
10
10
10
10
10
10
10
10
10
10
10
10
10
10
10
10
10
10
10
10
10
10
10
10
10
10
10
10
10
10
10
10
10
10
10
10
10
10
10
10
10
10
10
10
10
10
10
10
10
10
10
10
10
10
10
10
10
10
10
10
10
10
10
10
10
10
10
10
10
10
10
10
10
10
10
10
10
10
10
10
10
10
10
10
10
10
10
10
10
10
10
10
10
10
10
10
10
10
10
10
10
10
10
10
10
10
10
10
10
10
10
10
10
10
10
10
10
10
10
10
10
10
10
10
10
10
10
10
10
10
10
10
10
10

CELL_DATA 734
SCALARS potentialEnergy FLOAT 1
LOOKUP_TABLE default
30.734995
19.118196
36.312990
21.436842
24.338564
98.058212
110.688629
150.895676
111.605476
63.409325
112.668587
80.713966
47.589367
90.605835
95.913094
279.428528
79.388420
69.677555
89.676170
37.055315
46.587223
38.667124
25.787177
22.342946
62.385853
147.873871
77.603539
43.808254
219.899261
154.578827
96.235924
48.407612
106.689163
120.299026
139.917892
118.370972
70.403519
48.339283
41.351702
54.070259
107.845589
85.874557
124.211639
77.006958
199.084961
181.234818
133.074005
107.482071
76.537727
61.897263
78.481277
157.675064
143.907333
109.810989
138.847351
91.238724
192.060303
149.701141
71.748425
80.783760
47.392197
86.227600
152.548248
80.941391
100.421432
135.670197
80.366180
67.575195
134.338478
93.357323
81.097916
154.843567
79.469879
136.243027
30.434021
168.797180
99.302559
115.532028
87.789505
122.895874
104.577858
105.680000
66.205204
77.832779
105.276123
32.874392
102.785255
106.127449
52.209263
203.706985
161.157211
259.265793
47.598736
61.715714
47.896580
95.537903
255.542175
122.154068
117.632851
124.771706
95.680099
110.153801
59.836910
115.935715
181.471466
117.489601
46.182533
47.283455
64.359573
125.361649
47.980255
98.309250
76.767303
24.111751
46.314899
61.702225
93.761147
26.758110
56.690979
55.572060
94.065567
97.911987
115.111450
67.097492
112.627518
74.174744
50.250423
106.873405
82.214165
171.213577
48.693771
65.027199
158.619598
77.966560
86.320023
126.736298
49.509850
55.519073
197.759888
47.170700
65.222198
90.961761
82.005943
112.056557
84.038551
137.361900
52.185390
46.383732
58.768658
41.016134
55.561756
264.533615
55.646393
75.798569
70.350368
120.389786
142.672348
138.077972
196.342422
103.577888
163.998550
299.882507
311.932922
122.150864
184.993774
401.524475
100.306541
229.104416
106.211555
168.804825
112.232498
109.202660
100.271034
65.288212
148.440170
175.867599
198.494766
61.514526
71.419109
167.449646
221.155731
110.149124
166.444534
105.411194
181.096436
36.640343
38.800266
77.067886
301.809784
139.352020
48.879337
93.723137
182.993256
49.510746
45.491261
76.829460
60.421856
133.128593
61.635223
89.224808
109.336319
55.461193
143.416107
188.724304
274.063141
155.102615
238.307037
122.458214
107.733727
184.657150
135.734634
171.473282
216.367844
102.386513
162.685272
280.562469
58.558304
136.293076
101.153885
88.231148
78.731529
96.048416
36.166567
71.140038
106.242104
67.546055
157.917770
151.185135
56.671143
207.464615
120.591599
72.186787
66.013733
89.968964
112.370758
75.451347
125.824028
121.492012
33.285017
101.149643
120.645943
38.919485
43.592403
206.946701
129.810730
210.043289
320.177307
152.769852
175.593185
150.125534
157.290222
249.105164
249.750244
312.155304
104.799347
69.050461
80.389885
116.212196
133.849167
203.597214
78.160172
130.177055
120.670517
213.483871
330.836243
95.911995
126.528473
99.784569
201.025345
135.099380
158.054153
222.374329
221.695786
277.441132
140.723663
71.366356
101.004448
74.008820
32.818504
63.714661
84.748535
92.969360
198.937408
282.268433
111.774193
239.748306
123.268318
98.212929
60.215183
167.813461
241.851242
60.181484
163.447861
31.063831
220.104233
177.010376
121.295868
136.144051
42.165680
129.541718
61.266991
120.352898
159.134415
58.713093
77.447548
163.362549
218.211441
57.207806
84.499489
116.653656
64.253700
110.332726
158.172226
105.809402
186.540924
106.793709
25.697885
38.157907
145.504578
38.179693
69.102875
142.361862
81.256065
76.720390
144.438919
94.325806
93.790665
56.075516
165.777023
96.971291
358.049622
249.009140
85.487907
71.196793
228.776718
66.464191
281.817169
79.497047
152.798141
127.306816
41.353451
97.892715
127.446205
95.042236
121.945839
81.734032
86.656052
139.817154
75.635803
40.966785
29.796432
67.435268
116.875648
88.026428
148.346771
179.841980
58.093063
106.512215
102.773354
77.220924
196.456421
144.158051
184.017502
178.242996
45.931801
53.980061
136.405258
79.664261
95.522278
131.549393
40.621826
98.874260
105.903008
94.968697
44.933590
92.609482
37.185276
32.888023
41.940285
23.632339
37.664948
41.021654
40.473145
42.070560
138.304337
131.558014
177.041595
61.539993
149.448074
201.040298
102.974266
81.799187
53.398411
31.286774
110.337769
58.168808
95.346352
104.658173
132.382088
151.537659
93.319046
11.858744
16.646695
14.577139
17.091179
44.038486
20.936381
237.877838
37.143459
48.268757
40.384371
84.395042
42.342026
69.745407
77.248146
106.114662
107.427711
106.170166
50.833389
73.089714
35.266542
94.404320
72.376961
61.880310
212.593399
97.947762
274.328339
228.584686
124.246727
156.978317
192.965576
320.412384
194.395050
346.391846
35.525927
30.422873
46.980503
458.565613
91.883652
138.607681
515.650787
173.817093
156.653076
84.749664
282.261444
116.988846
226.636322
286.296448
120.199829
167.555527
233.699356
211.315765
64.732883
384.335938
325.864014
165.700439
259.236176
78.269150
118.969498
200.480804
278.801392
144.675110
120.425446
251.083557
93.720634
127.347374
118.008575
146.500793
45.723824
180.605606
48.321018
28.231962
98.246719
113.764961
69.161079
110.956177
109.001785
18.174904
128.161034
32.347662
136.830261
51.277206
146.064713
56.359856
186.936310
186.281769
227.844681
121.732124
96.638527
66.233776
125.636276
78.785118
187.101532
153.182388
94.083298
118.833374
126.230301
154.946259
81.851357
25.485832
138.090897
184.397202
88.958702
230.883392
110.703239
176.716507
86.441475
97.092850
87.602562
91.893776
28.178841
32.092794
163.424622
94.690926
121.401505
60.214226
96.552238
53.759686
39.987886
93.095474
95.064476
135.197609
205.894089
70.853878
101.473663
63.265667
107.147392
191.612503
96.646461
92.949501
54.676609
102.066437
38.287161
60.658699
150.037003
32.030722
47.210060
46.801941
126.345917
62.852013
27.932032
49.122421
22.198544
73.997379
100.755463
140.495621
215.727158
90.164719
112.161400
71.281067
110.155151
117.829315
243.407715
86.888428
76.707542
133.833855
249.000214
74.070427
28.402718
21.932298
155.093231
23.934463
28.074884
18.052886
42.061859
20.552904
74.025909
184.464218
74.525917
134.250725
180.988922
204.373505
124.659355
39.427479
100.441917
145.318695
85.661911
65.944202
97.905930
34.206614
126.920578
60.916489
204.771057
208.274902
154.060944
58.198578
78.378922
138.814301
27.622059
94.270432
114.789322
195.505753
447.744537
134.847549
60.855339
51.814991
67.867546
82.004005
199.889587
121.510971
84.387978
83.802780
74.708176
47.925186
322.684998
104.484985
109.018555
84.999405
59.103321
75.025772
50.388229
46.799973
88.239212
66.633335
168.970444
57.791721
318.904022
88.649773
90.870323
108.839661
75.930809
132.274490
75.096886
124.210854
194.686356
153.426071
106.140564
81.641380
38.485516
85.888832
95.562454
45.175850
30.055294
40.273258
172.178055
33.449165
28.041878
23.741266
194.980759
72.682911
15.150700
28.011492
46.748997
25.880355
25.307176
114.347168
103.076355
47.739429
84.666046
65.240013
28.399120
27.748051
19.219029
27.346710
147.875778
149.309692
54.678940
121.203674
111.588875
98.390892
87.498985
132.863197
85.314362
101.325760
54.076958
37.846302
49.005562
47.126217
105.259445
224.795197
77.304962
212.770493
85.236343
95.479416
75.913429
142.190598
241.492279
34.300020
106.115387
176.484161
54.322067
85.786407
263.875336
235.095276
70.005882
64.810539
246.174957
122.303017
50.864223
162.910049
180.588837
187.057983
25.978117
55.233387
71.701054
50.188339
44.312019
57.704330
132.928734
88.804596
175.153320
44.894104
75.715324
151.975159
84.212639
112.308914
111.180267
114.844017
128.636253
129.066566
201.029602
127.311462
110.864883
27.795055
171.563553
50.189640
179.583771
80.917488
52.116539
60.594608
53.006435
89.242462
90.928917
94.824081
86.507629
57.676170
135.223595
36.974224
146.596848
87.245842
100.235512
89.080658
34.267996
26.289886

