# vtk DataFile Version 3.1
Tetrahedral Mesh Visualization
ASCII
DATASET UNSTRUCTURED_GRID

POINTS 277 FLOAT
0.000000 1.378113 1.754166
0.000000 0.000000 0.000000
2.001687 0.018204 0.003201
0.000000 1.666667 0.000000
2.422354 0.008541 1.736837
0.000000 0.000000 1.666667
1.697788 2.480456 0.007135
3.002295 2.457584 2.334751
4.014240 5.000502 0.025727
3.082396 5.004124 1.660640
5.224704 4.994972 1.638229
3.501594 3.183424 0.024604
5.426740 3.299450 0.037195
6.025160 4.990992 0.037889
7.393073 3.327183 0.064927
6.985369 4.991747 1.375243
9.253701 2.176572 2.129221
8.706529 4.997094 1.695165
9.378490 3.330828 0.100576
10.672748 4.996633 1.780290
11.375942 3.330392 0.139959
11.119581 1.862301 1.692071
10.704115 1.666500 0.124765
12.702004 1.664352 0.167854
13.376973 3.328808 0.184360
12.982757 1.870948 1.667559
14.705396 1.663009 0.209968
14.031411 0.000157 0.191439
15.483952 2.135458 1.910341
15.345597 -0.006059 1.870413
13.338818 -0.004442 1.842054
17.309635 -0.000625 1.870152
16.716452 1.671552 0.254186
18.049643 0.005525 0.279887
16.044552 0.004437 0.232718
18.720785 1.672221 0.307406
19.026937 0.001316 1.631315
20.046597 0.000240 0.338284
16.720440 -0.011368 3.545318
18.989185 -0.003695 3.419740
17.697403 2.685130 3.223387
17.945381 -0.014325 5.279541
16.635399 1.653111 5.241330
15.950293 -0.012814 5.223494
14.667426 -0.009240 3.524525
15.758993 2.881654 3.578773
18.678638 1.687255 5.301676
17.263628 3.329884 5.268323
19.231874 3.381964 5.321975
19.306141 4.998663 3.657097
20.943008 3.677469 5.365921
21.307631 4.997335 3.705371
19.632729 2.495233 2.691450
20.675722 5.001796 2.022994
21.912218 2.505527 2.858734
22.669495 5.001417 2.064038
23.330753 3.395677 0.412969
23.971592 2.446044 2.723399
25.041327 3.682474 0.443114
25.037518 1.896552 0.437088
25.994802 2.505025 2.195621
27.295572 1.694784 0.480650
26.743811 3.385779 0.471815
29.270905 0.007152 2.123502
28.030895 -0.001039 0.488948
29.334330 1.680211 0.510418
30.987379 0.005742 1.844443
32.007271 0.011916 0.529726
31.323606 1.678774 0.527532
30.017618 0.011666 0.509711
33.283756 1.667627 0.538831
33.992424 0.008112 0.529963
32.679867 0.004581 2.147992
34.587238 0.000360 2.219035
34.992332 2.413500 3.074752
36.493767 -0.001477 2.353289
35.133125 0.011335 3.921257
36.826874 0.010837 4.069611
38.303196 2.511752 5.513181
37.690510 2.169585 2.702102
38.298958 0.007105 3.043318
37.976509 -0.014339 0.524758
38.007019 -0.001451 5.510099
35.997879 0.007229 5.529376
36.563911 1.749466 5.530702
34.930904 1.348483 5.534940
34.841297 3.141669 5.527658
36.761356 3.476791 5.533153
33.985306 5.009934 5.522882
32.683533 3.300985 5.526995
33.259869 5.008650 3.873936
31.980059 4.994417 5.521591
35.152054 5.003076 3.925025
32.203545 2.606071 2.960325
34.587578 5.008670 2.225194
32.646690 3.344249 0.527634
33.199799 0.007309 3.848806
30.973383 0.003628 3.636523
31.298027 1.656700 5.526234
33.235756 1.605051 5.534358
30.647110 3.324839 5.531593
28.634321 3.325676 5.516248
29.306507 1.662805 5.517997
30.017710 2.504075 3.001372
27.959665 2.488124 2.984373
26.622032 3.338583 5.479596
27.293531 1.672600 5.488192
24.673529 4.991468 2.108951
22.045242 5.004027 0.382758
21.379206 3.342841 0.369830
22.778170 1.700822 0.402075
20.053677 5.000451 0.337708
19.385752 3.337662 0.325822
18.679453 5.008316 1.971216
18.055950 5.012000 0.291609
17.387571 3.341064 0.275980
16.049749 5.001777 0.241748
16.677197 5.001958 1.919197
14.677562 4.993673 1.870483
13.680035 2.955010 3.452314
12.954346 1.315895 5.166402
12.651372 -0.007342 3.496622
13.955723 -0.004006 5.188613
11.236985 1.614239 5.139517
10.644830 -0.001760 3.461682
11.955089 -0.002341 5.155622
9.957317 -0.003894 5.114063
11.332446 -0.001756 1.804520
9.315707 0.001699 1.769511
10.027756 0.005117 0.110449
8.713287 1.666457 0.085640
8.037140 4.992282 0.067460
10.041223 4.994067 0.108341
11.204775 2.640139 3.421446
9.245257 5.004388 3.396297
10.699063 3.311544 5.130080
11.296646 4.994412 3.466547
9.960932 5.005014 5.112370
11.959121 4.996614 5.149400
7.969014 5.008800 5.067119
8.710775 3.392359 5.087915
6.963171 5.004766 3.163391
5.343716 3.371557 5.036528
5.980604 5.013351 5.033807
7.007655 3.685016 5.056080
5.137640 2.362644 3.176011
4.626314 5.000268 3.308374
3.483402 3.196199 5.012887
3.992955 5.008339 5.011892
2.370769 5.001230 3.289222
4.859422 1.602419 0.032648
4.911331 -0.007612 1.905056
6.748345 1.657077 0.058844
7.013783 2.556654 2.255767
8.640841 -0.000070 3.428016
17.310350 4.996956 3.603725
15.311725 4.998283 3.548693
15.949574 4.996565 5.233394
14.667464 1.602788 5.198993
15.218738 3.299104 5.213402
12.029779 0.000008 0.150833
15.382602 3.328089 0.223667
14.047318 4.992449 0.192155
12.672466 4.998071 1.830877
13.309231 4.996578 3.508295
7.249202 -0.001764 1.753925
6.661428 -0.006096 3.434618
4.894628 1.643138 5.039620
5.978494 -0.010357 5.046102
4.907736 -0.007398 3.694620
3.983621 -0.004514 5.020600
7.021676 1.887298 5.066116
7.967541 0.000829 5.081077
9.241857 1.692988 5.104551
20.946568 1.883923 5.362881
22.654453 3.390405 5.393092
23.947702 5.002769 5.418979
24.611879 3.343090 5.433972
23.307032 5.001388 3.740430
27.314419 4.993522 3.831772
26.677795 4.991013 2.149477
25.311430 4.995390 3.791431
35.157051 1.611445 0.533732
36.829334 1.454020 0.531435
40.001762 3.248050 4.130176
40.001850 1.635098 3.096442
38.304134 5.006957 3.056850
39.993511 3.254327 2.402715
40.001575 5.002696 3.857030
38.012379 4.985558 5.532228
40.018280 4.977745 5.525295
40.011482 3.318255 5.511168
40.016132 1.657130 5.489377
39.999187 -0.005286 3.824758
39.993629 0.001369 2.167005
39.983315 -0.003377 0.498167
39.981380 1.658428 0.501095
39.989296 3.325222 0.502647
38.299435 2.464600 0.510817
37.994541 4.995698 0.522546
39.999969 4.997222 2.185158
36.840946 4.998736 4.084764
36.508923 5.013865 2.366138
36.507225 3.185996 0.536880
36.009617 5.023413 0.547620
34.605736 3.321474 0.531765
34.008324 5.018387 0.529801
30.672949 3.349791 0.526457
30.016186 5.013328 0.515476
32.011898 5.018210 0.524209
30.652420 5.010911 2.189924
28.687416 3.347214 0.510917
26.706734 0.004540 3.859241
27.268015 0.001312 2.172027
25.274614 1.677683 5.442740
23.958778 0.000505 5.405841
25.956713 0.007266 5.454264
24.975662 0.011557 4.104855
23.211449 1.696388 5.408833
23.253057 -0.003402 3.789621
21.247223 -0.007355 3.678881
21.948406 -0.006578 5.381656
19.944811 -0.009483 5.330287
17.947451 4.990514 5.289733
19.943924 4.993828 5.342359
22.744881 -0.004093 2.085887
25.007797 0.007530 2.316126
24.037971 0.001921 0.414290
26.034925 0.003239 0.448358
26.048317 4.997538 0.469096
25.686388 2.239624 3.946051
28.666101 4.999615 2.184379
28.035065 5.009391 0.505745
25.951126 4.997347 5.470260
12.044860 4.996946 0.152497
12.956701 3.105426 5.170044
13.953763 4.996837 5.188073
21.946438 4.991105 5.389228
28.720844 0.000704 3.817530
29.309759 4.994343 3.860295
29.975445 4.995072 5.527273
31.294491 4.995488 3.861367
31.984190 0.000654 5.525767
33.998402 0.014171 5.537956
35.997017 5.000959 5.525949
32.633385 5.012110 2.199281
20.730967 1.670688 0.364074
20.737247 -0.009046 1.974715
24.048006 5.000010 0.428404
27.966921 4.992901 5.506312
40.001194 4.991606 0.524842
3.176074 1.467174 5.011895
0.000000 3.103853 1.750106
0.000000 5.000000 1.666667
0.000000 3.333333 0.000000
2.002512 5.009313 0.012728
0.000000 5.000000 0.000000
0.000000 5.000000 3.333333
0.000000 0.000000 3.333333
1.696530 2.468784 5.005100
3.037730 -0.001563 3.395562
1.998517 -0.003867 5.003436
0.000000 2.403264 3.370902
0.000000 1.666667 5.000000
0.000000 3.333333 5.000000
0.000000 0.000000 5.000000
27.967667 0.011761 5.497029
29.979897 -0.001818 5.516634
35.986149 0.001646 0.532224
40.011005 -0.013608 5.482924
8.026793 0.006589 0.069694
1.998186 4.996267 5.012653
3.172925 1.464725 0.015023
4.010487 0.008034 0.019192
22.040989 0.002591 0.381283
0.000000 5.000000 5.000000
6.025744 0.003769 0.044262

CELLS 734 3670
4 0 1 2 3
4 0 4 2 5
4 0 3 2 6
4 4 6 0 2
4 4 6 7 0
4 8 9 10 11
4 12 13 14 15
4 16 17 14 18
4 19 20 18 21
4 20 22 21 23
4 24 25 26 23
4 25 27 26 23
4 26 28 29 30
4 28 29 31 32
4 33 34 32 31
4 31 33 35 32
4 31 33 36 35
4 33 37 36 35
4 38 39 40 31
4 41 42 43 38
4 44 42 45 38
4 44 42 38 43
4 46 38 42 41
4 46 47 40 48
4 49 50 51 52
4 53 54 51 55
4 56 54 55 57
4 56 58 59 57
4 60 59 61 62
4 63 61 64 65
4 66 67 68 69
4 67 70 71 72
4 73 74 75 76
4 74 77 75 76
4 77 78 79 80
4 79 81 75 80
4 77 78 80 82
4 77 83 76 84
4 83 85 76 84
4 85 86 74 84
4 74 86 87 84
4 88 89 86 90
4 91 89 88 90
4 86 88 90 92
4 90 86 92 74
4 86 89 74 90
4 93 94 95 74
4 70 74 72 93
4 70 73 71 72
4 74 96 73 72
4 66 97 93 72
4 96 97 72 93
4 96 98 97 93
4 85 96 74 99
4 96 98 93 99
4 98 89 100 93
4 101 102 100 103
4 104 105 101 106
4 107 58 57 60
4 58 107 57 56
4 53 108 109 55
4 56 110 109 54
4 53 111 109 108
4 112 53 109 52
4 111 112 113 53
4 112 111 113 114
4 115 116 114 117
4 40 28 115 117
4 45 117 118 28
4 119 28 25 44
4 120 44 121 122
4 123 121 124 125
4 125 123 126 124
4 127 128 21 124
4 16 129 128 21
4 16 18 14 130
4 16 17 18 19
4 131 17 132 18
4 16 19 18 21
4 133 16 19 134
4 135 134 133 136
4 135 137 136 138
4 137 134 139 140
4 141 142 143 144
4 145 146 147 7
4 142 148 147 146
4 7 146 147 149
4 10 7 9 146
4 145 150 7 151
4 152 151 150 153
4 16 128 154 124
4 124 21 121 133
4 25 28 30 44
4 28 38 45 40
4 45 47 40 42
4 155 45 156 47
4 157 156 47 155
4 155 45 40 117
4 45 42 158 159
4 44 42 43 158
4 119 45 158 159
4 120 44 158 119
4 25 127 21 121
4 25 27 160 30
4 127 25 160 30
4 25 127 121 30
4 44 25 121 30
4 28 30 44 29
4 119 28 44 45
4 119 28 118 25
4 28 24 26 161
4 26 32 29 28
4 28 31 29 38
4 46 38 41 39
4 46 38 39 40
4 28 117 40 45
4 118 28 117 161
4 162 24 118 161
4 118 119 163 164
4 136 119 164 163
4 25 133 21 163
4 128 16 21 124
4 165 166 153 154
4 166 167 168 169
4 167 168 169 170
4 171 168 172 166
4 124 173 126 154
4 123 121 133 124
4 120 125 122 121
4 122 158 44 43
4 47 46 40 42
4 52 50 174 48
4 175 50 174 54
4 176 175 177 178
4 179 60 180 181
4 64 69 63 65
4 68 72 67 66
4 70 73 182 71
4 74 79 183 75
4 184 78 185 79
4 79 184 186 187
4 186 184 188 187
4 184 189 190 191
4 184 78 79 186
4 78 189 184 191
4 189 184 190 188
4 184 78 191 192
4 184 78 192 185
4 192 78 80 185
4 193 80 194 185
4 195 81 196 194
4 81 79 196 194
4 197 187 196 198
4 187 79 185 196
4 79 184 187 185
4 197 199 187 198
4 199 197 187 200
4 199 200 187 186
4 78 201 79 186
4 189 201 87 78
4 202 201 79 74
4 201 74 92 87
4 201 202 92 74
4 201 202 79 186
4 202 203 74 79
4 202 198 203 79
4 204 202 199 203
4 202 203 205 74
4 202 204 205 203
4 182 203 74 205
4 74 203 183 79
4 79 203 183 198
4 79 81 198 183
4 81 79 198 196
4 187 79 196 198
4 202 198 79 186
4 202 204 94 205
4 94 95 205 206
4 207 208 209 210
4 208 207 211 210
4 104 103 211 65
4 104 60 212 213
4 214 215 216 217
4 218 219 220 221
4 222 174 220 221
4 46 39 222 174
4 52 46 40 48
4 40 49 52 48
4 53 49 52 113
4 40 49 155 113
4 155 45 47 40
4 157 47 223 155
4 49 223 224 48
4 52 50 51 54
4 175 54 57 178
4 218 175 54 57
4 225 219 54 57
4 218 175 57 177
4 57 217 219 218
4 219 225 226 57
4 225 227 226 57
4 59 110 57 227
4 59 60 61 228
4 61 60 213 228
4 64 61 213 228
4 63 61 213 64
4 61 104 211 65
4 180 60 104 62
4 58 229 62 180
4 58 60 180 62
4 60 61 104 62
4 60 226 230 212
4 226 60 213 212
4 60 104 212 230
4 179 60 230 104
4 104 211 231 62
4 180 229 62 232
4 180 232 62 231
4 179 60 104 180
4 233 181 105 179
4 181 105 179 230
4 105 214 106 230
4 105 214 230 177
4 215 214 218 217
4 215 217 218 219
4 218 215 219 221
4 218 175 174 54
4 39 52 220 174
4 39 46 52 174
4 115 52 112 35
4 28 115 117 161
4 162 118 116 161
4 24 162 118 163
4 20 19 234 163
4 25 133 163 119
4 120 119 158 235
4 236 119 235 159
4 235 119 158 159
4 119 235 133 136
4 138 235 236 164
4 45 47 42 159
4 46 38 40 42
4 49 50 52 48
4 237 175 176 178
4 181 233 177 176
4 180 179 231 104
4 207 103 65 211
4 207 103 68 65
4 65 66 103 68
4 103 66 97 93
4 66 103 97 63
4 213 104 63 238
4 238 97 103 63
4 104 102 103 238
4 104 106 212 230
4 214 212 106 230
4 214 212 216 106
4 214 212 217 216
4 214 212 230 217
4 226 217 230 212
4 226 60 230 57
4 181 60 57 230
4 179 105 104 230
4 179 105 101 104
4 104 239 103 101
4 239 101 240 100
4 91 241 240 100
4 241 239 240 100
4 239 241 103 100
4 103 210 93 241
4 103 207 93 210
4 210 103 231 239
4 103 239 104 231
4 103 104 63 65
4 65 66 63 103
4 65 66 68 69
4 68 72 66 93
4 96 98 242 97
4 85 96 99 243
4 85 86 99 74
4 86 89 99 74
4 88 86 244 92
4 74 86 92 87
4 201 244 87 92
4 244 86 87 92
4 90 74 92 94
4 94 95 206 245
4 95 209 206 245
4 245 207 95 209
4 208 232 231 211
4 180 104 231 62
4 181 60 107 57
4 54 175 51 178
4 50 52 174 54
4 246 36 52 247
4 246 36 37 35
4 52 31 36 35
4 31 39 52 36
4 39 46 222 41
4 39 222 174 220
4 174 218 220 221
4 218 219 54 220
4 225 219 220 54
4 56 110 54 57
4 110 56 59 57
4 60 59 226 228
4 60 226 213 228
4 57 217 230 226
4 214 217 230 218
4 218 57 230 177
4 181 105 230 177
4 179 60 181 230
4 58 107 180 60
4 229 107 58 248
4 229 107 180 58
4 60 58 59 62
4 58 107 56 248
4 108 56 109 55
4 108 56 55 248
4 107 56 55 57
4 107 181 57 178
4 57 181 177 178
4 181 176 177 178
4 233 181 177 105
4 249 239 101 240
4 91 89 241 100
4 89 91 241 90
4 210 245 93 241
4 245 241 90 93
4 93 94 90 245
4 74 202 92 94
4 205 204 94 206
4 202 198 199 203
4 202 198 186 199
4 199 197 200 250
4 199 186 187 198
4 200 186 188 187
4 184 189 186 188
4 201 189 87 244
4 189 201 78 186
4 201 78 79 87
4 189 78 184 186
4 186 79 187 198
4 74 201 79 87
4 74 79 84 87
4 79 78 84 87
4 77 78 84 79
4 74 77 84 79
4 74 85 84 76
4 83 243 76 85
4 85 96 243 76
4 73 96 74 76
4 96 93 74 99
4 89 93 99 74
4 93 94 74 90
4 93 94 245 95
4 207 95 68 93
4 95 70 68 93
4 95 70 74 205
4 74 70 182 205
4 94 95 74 205
4 241 89 90 93
4 104 179 231 239
4 181 60 180 107
4 107 57 55 178
4 57 54 55 178
4 53 49 51 52
4 40 49 113 52
4 155 47 223 48
4 45 47 159 156
4 119 156 45 159
4 120 44 119 121
4 16 173 124 154
4 166 167 169 145
4 145 7 147 251
4 9 7 252 149
4 253 254 252 255
4 256 253 255 254
4 6 9 252 255
4 253 257 149 252
4 7 258 259 260
4 260 261 251 170
4 169 260 251 170
4 169 251 167 170
4 166 167 145 171
4 16 22 18 130
4 25 24 20 23
4 24 25 118 28
4 119 156 118 45
4 119 28 45 118
4 119 45 44 158
4 44 38 28 29
4 25 28 26 30
4 25 24 26 28
4 24 20 234 163
4 162 24 234 163
4 163 119 118 25
4 235 135 133 136
4 135 134 140 133
4 145 141 153 144
4 145 260 169 151
4 0 258 4 5
4 259 258 262 263
4 264 259 262 263
4 258 7 262 0
4 260 258 259 261
4 258 261 263 259
4 261 258 263 265
4 261 260 251 259
4 167 251 169 145
4 145 260 251 169
4 166 167 171 168
4 16 171 153 140
4 137 135 136 134
4 138 135 235 136
4 235 138 136 164
4 236 119 156 164
4 157 156 159 47
4 155 47 48 40
4 40 49 48 155
4 46 52 174 48
4 247 225 220 54
4 110 225 57 227
4 60 59 57 226
4 104 61 211 62
4 232 211 62 231
4 103 104 211 231
4 239 210 103 241
4 241 93 103 100
4 68 72 93 70
4 103 207 68 93
4 207 103 211 210
4 210 208 231 211
4 103 210 231 211
4 245 207 210 93
4 245 207 209 210
4 245 207 93 95
4 70 95 74 93
4 70 73 74 182
4 182 203 183 74
4 202 74 205 94
4 93 89 90 74
4 89 241 100 93
4 93 98 103 100
4 101 104 102 103
4 104 101 102 106
4 106 238 104 212
4 266 216 212 106
4 106 238 212 266
4 106 238 102 104
4 267 266 238 102
4 97 102 267 238
4 106 238 266 102
4 97 102 238 103
4 97 102 103 98
4 97 102 98 267
4 97 98 242 267
4 96 98 99 242
4 89 98 99 93
4 239 101 100 103
4 104 179 239 101
4 179 249 239 101
4 105 179 101 249
4 233 105 249 179
4 177 181 57 230
4 175 57 177 178
4 175 237 51 178
4 55 54 51 178
4 112 111 109 53
4 112 53 52 113
4 117 115 113 114
4 116 118 117 161
4 115 116 117 161
4 28 115 161 32
4 29 32 26 34
4 26 30 29 27
4 34 26 29 27
4 29 34 31 32
4 31 115 32 35
4 31 115 28 32
4 246 112 52 35
4 246 247 52 54
4 247 110 225 54
4 59 227 57 226
4 213 104 238 212
4 104 103 63 238
4 97 98 103 93
4 70 73 72 74
4 71 182 268 73
4 182 75 268 73
4 182 75 183 268
4 183 81 268 75
4 182 75 74 183
4 79 81 183 75
4 79 81 80 194
4 78 192 80 82
4 192 193 80 82
4 269 193 192 82
4 193 192 80 185
4 80 79 194 185
4 77 74 75 79
4 85 96 76 74
4 96 243 242 99
4 98 102 103 100
4 104 105 106 230
4 214 218 230 177
4 50 175 51 54
4 49 155 223 48
4 157 156 236 159
4 236 119 159 156
4 235 119 164 136
4 236 119 164 235
4 133 235 120 123
4 120 235 133 119
4 135 123 235 133
4 124 173 123 126
4 173 172 126 154
4 166 171 154 172
4 172 171 154 173
4 171 16 154 173
4 171 166 154 153
4 16 171 154 153
4 124 173 16 133
4 124 173 133 123
4 25 133 119 121
4 19 16 133 21
4 163 19 133 21
4 134 19 133 136
4 133 119 136 163
4 133 19 163 136
4 132 20 18 19
4 20 132 234 19
4 20 19 163 21
4 22 20 21 18
4 16 22 21 18
4 128 129 127 21
4 160 129 21 127
4 160 21 25 127
4 25 20 21 23
4 25 27 23 160
4 25 27 30 26
4 23 22 21 160
4 16 129 21 22
4 128 130 165 270
4 128 130 270 129
4 128 130 16 165
4 16 165 153 154
4 17 16 14 153
4 131 17 18 14
4 17 141 153 15
4 12 10 15 153
4 15 17 14 153
4 153 16 14 130
4 16 129 22 130
4 128 130 129 16
4 16 128 165 154
4 151 166 153 165
4 260 145 7 151
4 9 6 252 7
4 7 262 252 149
4 260 259 7 251
4 7 259 147 251
4 264 259 271 149
4 259 7 147 149
4 146 148 147 149
4 271 259 147 149
4 148 271 147 149
4 146 142 143 141
4 144 141 140 139
4 141 134 140 139
4 143 141 144 139
4 142 145 141 146
4 145 142 141 144
4 148 142 143 146
4 145 7 10 146
4 145 150 151 153
4 151 272 150 7
4 151 272 273 150
4 151 272 4 273
4 4 272 2 273
4 151 272 7 4
4 4 260 7 151
4 166 145 151 153
4 166 145 169 151
4 171 166 153 145
4 133 16 140 173
4 124 16 21 133
4 25 21 160 23
4 21 129 160 22
4 121 21 124 127
4 121 120 133 119
4 123 121 125 120
4 123 121 120 133
4 25 133 121 21
4 25 20 163 21
4 118 24 28 161
4 26 28 161 32
4 40 115 28 31
4 115 52 113 112
4 246 112 109 52
4 246 52 109 54
4 56 54 109 55
4 56 107 55 248
4 58 60 59 57
4 63 61 65 104
4 68 72 70 67
4 182 75 73 74
4 77 79 75 80
4 196 79 185 194
4 79 78 185 80
4 77 78 82 84
4 83 77 82 84
4 77 74 84 76
4 96 74 93 72
4 103 66 93 68
4 65 66 69 63
4 63 61 104 213
4 61 60 104 213
4 59 227 226 228
4 274 110 227 225
4 246 36 247 37
4 246 36 35 52
4 52 115 40 31
4 28 31 38 40
4 44 42 158 45
4 120 44 122 158
4 135 133 140 173
4 171 16 173 140
4 171 144 153 140
4 141 144 140 153
4 10 141 15 153
4 10 12 15 13
4 10 8 12 13
4 8 10 12 11
4 8 9 11 255
4 9 253 149 252
4 257 262 149 252
4 262 259 149 7
4 258 7 4 260
4 259 258 7 262
4 262 0 7 252
4 0 6 7 252
4 254 6 252 255
4 0 3 6 252
4 6 3 254 252
4 272 6 11 7
4 4 6 272 7
4 4 6 2 272
4 9 6 11 255
4 9 253 252 255
4 262 264 257 149
4 257 264 275 271
4 259 264 262 149
4 257 264 271 149
4 9 146 7 149
4 10 7 11 9
4 7 12 10 11
4 145 150 153 12
4 12 145 10 153
4 145 146 10 141
4 145 142 147 146
4 171 145 153 144
4 171 142 145 144
4 142 171 145 167
4 142 145 147 167
4 167 145 147 251
4 145 260 7 251
4 145 150 12 7
4 12 145 7 10
4 12 152 153 14
4 152 153 14 130
4 152 151 153 165
4 165 152 276 270
4 152 151 165 276
4 165 152 270 130
4 152 151 276 150
4 276 150 151 273
4 272 7 11 150
4 7 12 11 150
4 153 150 152 12
4 165 16 153 130
4 165 152 130 153
4 15 12 153 14
4 13 131 14 15
4 17 131 15 14
4 17 132 18 19
4 25 24 163 20
4 25 24 118 163
4 119 156 164 118
4 118 117 45 156
4 155 45 117 156
4 113 40 117 155
4 50 49 224 48
4 49 50 224 51
4 50 237 224 51
4 237 50 175 51
4 52 54 220 174
4 52 247 220 54
4 39 247 220 52
4 39 247 52 36
4 115 52 35 31
4 40 115 52 113
4 40 115 113 117
4 115 112 113 114
4 53 52 51 54
4 54 53 109 55
4 52 53 109 54
4 110 246 109 54
4 247 110 54 246
4 247 110 274 225
4 246 274 37 247
4 247 110 246 274
4 110 225 54 57
4 57 217 226 219
4 57 217 218 230
4 219 218 54 57
4 218 54 174 220
4 46 39 52 40
4 39 31 52 40
4 38 42 45 40
4 28 38 44 45
4 121 25 44 119
4 123 135 173 133
4 134 153 140 16
4 134 16 140 133
4 137 135 134 140
4 134 153 141 140
4 134 153 16 17
4 16 17 19 134
4 134 153 17 141
4 153 145 10 141
4 6 9 11 7
4 258 7 0 4
4 1 0 2 5

CELL_TYPES 734
10
10
10
10
10
10
10
10
10
10
10
10
10
10
10
10
10
10
10
10
10
10
10
10
10
10
10
10
10
10
10
10
10
10
10
10
10
10
10
10
10
10
10
10
10
10
10
10
10
10
10
10
10
10
10
10
10
10
10
10
10
10
10
10
10
10
10
10
10
10
10
10
10
10
10
10
10
10
10
10
10
10
10
10
10
10
10
10
10
10
10
10
10
10
10
10
10
10
10
10
10
10
10
10
10
10
10
10
10
10
10
10
10
10
10
10
10
10
10
10
10
10
10
10
10
10
10
10
10
10
10
10
10
10
10
10
10
10
10
10
10
10
10
10
10
10
10
10
10
10
10
10
10
10
10
10
10
10
10
10
10
10
10
10
10
10
10
10
10
10
10
10
10
10
10
10
10
10
10
10
10
10
10
10
10
10
10
10
10
10
10
10
10
10
10
10
10
10
10
10
10
10
10
10
10
10
10
10
10
10
10
10
10
10
10
10
10
10
10
10
10
10
10
10
10
10
10
10
10
10
10
10
10
10
10
10
10
10
10
10
10
10
10
10
10
10
10
10
10
10
10
10
10
10
10
10
10
10
10
10
10
10
10
10
10
10
10
10
10
10
10
10
10
10
10
10
10
10
10
10
10
10
10
10
10
10
10
10
10
10
10
10
10
10
10
10
10
10
10
10
10
10
10
10
10
10
10
10
10
10
10
10
10
10
10
10
10
10
10
10
10
10
10
10
10
10
10
10
10
10
10
10
10
10
10
10
10
10
10
10
10
10
10
10
10
10
10
10
10
10
10
10
10
10
10
10
10
10
10
10
10
10
10
10
10
10
10
10
10
10
10
10
10
10
10
10
10
10
10
10
10
10
10
10
10
10
10
10
10
10
10
10
10
10
10
10
10
10
10
10
10
10
10
10
10
10
10
10
10
10
10
10
10
10
10
10
10
10
10
10
10
10
10
10
10
10
10
10
10
10
10
10
10
10
10
10
10
10
10
10
10
10
10
10
10
10
10
10
10
10
10
10
10
10
10
10
10
10
10
10
10
10
10
10
10
10
10
10
10
10
10
10
10
10
10
10
10
10
10
10
10
10
10
10
10
10
10
10
10
10
10
10
10
10
10
10
10
10
10
10
10
10
10
10
10
10
10
10
10
10
10
10
10
10
10
10
10
10
10
10
10
10
10
10
10
10
10
10
10
10
10
10
10
10
10
10
10
10
10
10
10
10
10
10
10
10
10
10
10
10
10
10
10
10
10
10
10
10
10
10
10
10
10
10
10
10
10
10
10
10
10
10
10
10
10
10
10
10
10
10
10
10
10
10
10
10
10
10
10
10
10
10
10
10
10
10
10
10
10
10
10
10
10
10
10
10
10
10
10
10
10
10
10
10
10
10
10
10
10
10
10
10
10
10
10
10
10
10
10
10
10
10
10
10
10
10
10
10
10
10
10
10
10
10
10
10
10
10
10
10
10
10
10
10
10
10
10
10
10
10
10
10
10
10
10
10
10
10
10
10
10
10
10
10
10
10
10
10
10
10
10
10
10
10
10
10
10
10
10
10
10
10
10
10
10
10
10
10
10
10
10
10
10
10
10
10
10
10
10
10
10
10
10
10
10
10
10
10
10
10
10
10
10
10
10
10
10
10
10
10
10
10
10
10

CELL_DATA 734
SCALARS potentialEnergy FLOAT 1
LOOKUP_TABLE default
79.944633
49.270084
150.873810
139.261475
58.957706
72.757141
72.665558
48.429958
77.442932
42.307381
61.922359
39.776766
68.559978
79.867096
88.080971
37.954418
37.958536
52.387245
193.006210
52.249840
48.441032
29.171638
83.261063
88.242744
44.112495
44.017002
34.909615
31.537310
86.439629
84.753288
65.490055
126.909920
122.886604
115.553093
108.188026
172.758911
105.653000
101.998436
34.683771
141.261658
164.459824
78.874435
48.415279
67.491413
194.843735
106.215393
122.514847
93.714729
109.117485
114.276451
41.891384
25.931810
32.451538
131.918236
56.618992
173.620621
153.663544
225.362778
60.348480
35.256746
32.206612
59.954311
49.097404
32.243048
37.580099
58.922291
88.251610
134.083786
72.902229
105.642761
29.533739
41.728832
29.806948
49.272907
80.773048
49.125454
57.701622
59.122955
41.200480
43.614548
75.959366
29.502579
69.414215
103.928055
163.393768
184.370758
48.488880
118.641312
93.436859
86.117310
80.572708
64.193535
101.805573
108.097931
43.865826
54.416233
45.764111
34.886978
34.956699
22.652160
28.621378
24.352577
45.357250
27.182320
30.642612
36.402924
18.995107
61.764095
69.027855
78.428970
53.473331
142.452560
68.218979
67.255516
131.086113
115.244469
124.659485
62.053478
32.124638
49.670837
75.674751
100.097122
99.296219
86.887482
41.651159
113.935333
48.516907
54.844147
19.021147
40.726271
88.835327
42.306969
48.100842
54.836643
77.490463
146.265045
73.470501
84.056946
196.440765
21.181635
43.292458
55.506874
55.760258
24.194426
48.110607
183.325714
91.538582
82.943558
175.577911
131.256264
184.894897
122.361992
174.798019
107.726494
72.985329
147.392029
153.917648
157.243576
76.299606
138.927032
108.549904
179.577560
250.906235
100.848846
218.839447
274.345978
351.288422
263.896744
242.400467
175.896301
150.327057
130.231003
137.224991
142.623795
106.950279
226.269318
60.247738
54.003586
64.310268
64.163498
51.494709
88.701721
97.125122
22.378702
66.850677
45.329220
71.324528
113.100288
70.888855
40.192430
35.106348
54.924271
42.427597
45.025047
63.910156
54.654671
54.773144
52.401405
157.425629
72.422672
94.335526
37.666149
76.393333
132.379295
100.091667
45.602100
109.669762
181.948624
28.123510
230.108948
125.861115
103.942184
159.421310
59.383389
75.879158
428.406952
161.497620
180.127304
71.236317
193.358734
140.395264
85.295815
202.804306
155.348953
210.094391
111.222977
32.310917
108.381935
79.719498
47.373806
123.326439
113.994629
25.060621
57.759254
62.696247
83.644112
27.312904
23.564652
47.895954
47.166889
81.056351
179.665161
57.845837
42.902050
64.593204
147.089951
57.477699
101.978188
129.007011
38.873011
54.284473
120.898697
52.177559
214.522064
134.006798
187.077789
102.224251
105.489296
116.221672
104.204315
110.463303
72.699997
172.529572
360.297211
132.367126
64.278080
53.588669
68.155544
162.332382
167.495224
156.147720
174.918854
34.969322
93.612488
48.830811
81.850471
46.220798
35.456245
70.663017
86.503403
72.184242
108.101410
398.538269
103.191292
181.558182
367.616943
68.018620
53.806355
123.350937
256.018295
246.910690
66.175503
53.246761
40.711821
127.816444
46.692524
95.063148
81.003731
32.324268
56.240604
25.116972
35.258266
36.592693
47.509785
33.504581
71.527355
158.854599
133.103394
174.441437
142.607635
248.947632
97.412399
74.755051
38.357180
34.357622
142.840500
32.484205
47.715420
22.448137
77.900787
129.697311
152.162308
68.775276
195.737778
90.904221
131.845444
87.982414
176.994766
112.128952
98.367844
121.035858
41.810991
234.032227
260.775253
210.173645
111.838875
105.139549
57.085499
202.092499
53.040215
156.071823
46.487823
176.320084
90.881935
142.449203
122.292206
97.362541
129.937408
73.868942
17.753396
72.735420
187.705978
81.336128
86.219162
69.922485
149.049820
263.395584
119.348282
72.205582
176.908615
112.699585
56.714291
18.749014
85.891472
113.115929
27.657461
29.496090
72.353123
41.835548
53.246723
20.446179
27.282381
106.349068
116.792847
134.322594
44.156559
102.838593
88.163338
68.452911
29.122604
22.331311
110.178886
62.926132
103.711159
162.871979
56.594891
47.215126
61.515873
27.618713
41.157825
37.597414
55.585094
49.215488
75.388954
72.090057
25.021331
45.698330
29.940371
119.912178
113.727257
94.933876
31.023386
78.190605
56.958355
80.265266
47.928490
91.950523
28.356337
50.241463
164.875748
116.083450
83.436012
56.162807
56.930164
44.643658
48.572315
12.918912
48.326782
45.984947
79.295677
60.473225
42.978622
33.657003
118.573944
193.009338
159.130112
78.341492
186.894150
110.349831
148.568207
134.354156
199.716400
69.824631
235.021713
106.193451
101.200111
271.207214
237.634964
175.526657
69.372364
228.353409
81.392387
305.830139
146.287613
30.322411
198.304626
126.264664
134.917618
103.902115
236.191238
151.401764
17.499490
125.995926
31.601513
103.829292
34.912121
35.625498
30.773001
56.212555
157.942215
28.297352
61.893883
108.336159
178.629456
180.160477
90.387367
44.992466
28.640120
28.658081
82.508347
57.547699
74.272659
90.625626
110.177071
96.764900
41.614662
114.511108
58.126762
103.485680
103.619453
80.356598
77.062805
53.209538
65.432003
122.244095
79.362267
118.593826
145.781113
61.339096
49.577347
90.496948
69.252529
56.588989
142.106674
151.875168
156.704208
53.370056
90.053413
82.099815
57.649281
93.320007
99.196228
151.190552
51.410954
139.746017
95.255409
80.694206
46.502613
25.877614
23.260734
17.721016
33.688183
63.940723
64.841415
46.596684
51.667137
70.236607
76.259453
58.101688
166.208633
110.621559
68.546715
72.647449
119.413612
64.727303
22.264503
57.188156
101.974907
41.141193
57.896229
45.808243
65.211117
84.570343
82.529800
55.712044
96.276993
34.747810
36.388334
35.827435
34.121267
53.497147
55.371521
32.749968
71.058071
56.980698
53.730515
104.855995
107.460068
52.566826
134.187035
53.398079
128.802994
67.315887
80.420090
41.172392
48.581680
62.406410
104.302483
65.339966
70.422791
111.360016
43.216492
40.957445
93.190948
153.108078
43.090805
63.854191
84.715256
57.007713
60.153648
94.031029
219.334564
174.186066
101.703194
105.273003
66.139572
153.484177
81.051125
70.199303
85.127686
146.240204
141.554794
54.546139
64.524696
85.706688
103.440430
29.927086
33.701401
37.468618
35.529810
73.655441
18.057013
60.418430
79.039558
54.046749
82.218155
130.895874
111.501480
78.602295
56.193962
70.566788
84.345146
79.118294
164.945160
203.858002
42.075386
208.021133
134.590500
107.096115
122.615250
126.876778
67.769760
51.047890
30.882881
139.072891
59.248695
160.638824
189.518204
48.425709
21.542582
50.466339
108.498039
180.258255
89.566177
42.735874
29.661623
95.075455
86.625412
98.346695
111.728592
26.421814
64.145889
154.933472
72.173504
204.406174
73.546425
35.308037
17.692617
54.952465
19.678029
61.037392
82.457619
74.885086
254.811798
245.975632
121.192635
150.601425
124.275162
160.269867
71.833241
35.809151
54.230854
27.872177
37.418945
25.203333
156.061737
166.597565
156.413116
110.952034
198.151474
328.970490
109.427666
141.908890
119.005455
114.497665
119.066978
177.700241
132.680931
89.763107
134.530922
70.756039
80.653732
23.030800
35.376808
38.458607
57.029781
195.544891
123.351082
138.745331
122.908310
56.442394
51.682758
276.691071
91.821411
139.868164
48.984264
77.818771
48.701637
22.511930
70.180408
49.518650
198.836258
89.439163
30.694723
37.995094
61.734962
44.090378
82.525406
171.056488
122.670547
154.223663
172.758362
103.704781
44.076523
28.534559
54.489491
51.851540
54.905930
69.612099
22.589092
45.419106
53.919209
22.870786
122.943497
250.944168
22.837163
29.155130
89.945442
103.187469
96.202477
52.026218
32.325281
41.051535
72.520756
112.021370
106.053818
164.725662
48.368603
88.851189
75.027519
93.697250
184.493469
74.049706
64.950108

