# vtk DataFile Version 3.1
Tetrahedral Mesh Visualization
ASCII
DATASET UNSTRUCTURED_GRID

POINTS 277 FLOAT
0.000000 1.378113 1.754166
0.000000 0.000000 0.000000
2.002603 0.022789 0.012827
0.000000 1.666667 0.000000
2.422479 0.009217 1.750170
0.000000 0.000000 1.666667
1.697707 2.483967 0.015270
2.999337 2.463215 2.346401
3.999307 5.020815 0.040751
3.075479 5.014989 1.677772
5.207438 5.016081 1.659675
3.495551 3.196233 0.031825
5.414262 3.324178 0.051013
6.001931 5.020897 0.059945
7.372982 3.344420 0.069573
6.966547 5.014057 1.390254
9.250484 2.189718 2.103461
8.688889 5.012745 1.691597
9.353308 3.353167 0.076117
10.652281 5.018051 1.741532
11.353639 3.366844 0.084655
11.116089 1.891869 1.633193
10.692263 1.693862 0.078868
12.696823 1.717484 0.092128
13.358378 3.391737 0.101829
12.983698 1.925646 1.584906
14.703135 1.740716 0.113146
14.042930 0.065940 0.098605
15.478405 2.210600 1.816903
15.351695 0.065651 1.775590
13.354674 0.054096 1.752941
17.308704 0.063267 1.767797
16.705273 1.742490 0.153054
18.038416 0.058218 0.178508
16.042631 0.075999 0.131250
18.707216 1.726770 0.188791
19.024590 0.050066 1.514462
20.037870 0.045848 0.215377
16.722767 0.060891 3.447547
18.992300 0.051914 3.305991
17.699228 2.744915 3.113866
17.957092 0.048907 5.169549
16.653605 1.721248 5.146700
15.967530 0.056047 5.135317
14.675288 0.058648 3.435923
15.764728 2.952874 3.485752
18.699980 1.746088 5.188070
17.289097 3.394043 5.160629
19.261267 3.432055 5.194463
19.324793 5.043611 3.533901
20.974541 3.717301 5.224966
21.325108 5.036911 3.563371
19.632053 2.537574 2.561355
20.677731 5.032703 1.883165
21.915606 2.540236 2.720156
22.673185 5.032435 1.927420
23.318995 3.426795 0.266489
23.970922 2.480026 2.582160
25.015913 3.710562 0.292167
25.018278 1.914651 0.293910
25.985714 2.532722 2.027473
27.273832 1.721255 0.304017
26.717955 3.417248 0.291562
29.275227 0.032570 1.907282
28.013811 0.028261 0.295564
29.322075 1.695377 0.294404
30.991470 0.028866 1.619140
32.013962 0.024787 0.301510
31.317558 1.690049 0.300577
30.017195 0.022527 0.296582
33.273529 1.694169 0.313837
33.994823 0.043415 0.294134
32.684608 0.019333 1.920516
34.596642 0.025171 1.979696
34.986607 2.427783 2.844613
36.509109 0.043807 2.096375
35.144382 0.022020 3.673877
36.837711 0.028676 3.821202
38.288860 2.542160 5.293002
37.686958 2.212512 2.474985
38.308155 0.048556 2.805350
37.993206 0.060015 0.277255
38.006973 0.024375 5.276868
36.002861 0.011256 5.283336
36.559029 1.756337 5.293262
34.929981 1.344785 5.298194
34.839611 3.141634 5.312223
36.745968 3.489714 5.307965
33.992718 5.010620 5.324936
32.684132 3.311388 5.313505
33.265633 5.019300 3.672767
31.992849 5.014971 5.317166
35.147636 5.020419 3.720969
32.198921 2.620664 2.739636
34.583233 5.040479 2.023396
32.636242 3.375339 0.322378
33.207344 0.018255 3.621159
30.979534 0.017683 3.407905
31.305223 1.668491 5.299637
33.242756 1.616785 5.309179
30.658304 3.346032 5.305199
28.653109 3.362847 5.301233
29.318624 1.690068 5.298025
30.013220 2.529805 2.780255
27.956804 2.529448 2.780415
26.645927 3.370934 5.295039
27.312857 1.703716 5.289802
24.667006 5.032694 1.961131
22.035734 5.042494 0.249457
21.368305 3.376473 0.227640
22.767857 1.731380 0.260301
20.041691 5.038515 0.204402
19.369440 3.385243 0.200604
18.677654 5.058389 1.859706
18.040138 5.069108 0.188308
17.370560 3.406985 0.170341
16.031578 5.074179 0.153161
16.671194 5.070883 1.827811
14.662617 5.060324 1.793819
13.680472 3.008946 3.376675
12.972082 1.361219 5.093917
12.663589 0.039323 3.413327
13.976656 0.045873 5.098617
11.254017 1.629550 5.078550
10.655728 0.014330 3.403197
11.990355 0.025594 5.079544
9.989257 0.001024 5.068406
11.346205 0.031077 1.740243
9.320525 0.011702 1.742201
10.025556 0.022375 0.076072
8.703169 1.677288 0.074124
8.005366 5.019004 0.076464
10.000825 5.028688 0.088791
11.210257 2.661798 3.364830
9.236403 5.001183 3.385929
10.712500 3.317262 5.084998
11.287808 5.017319 3.416532
9.968782 5.003101 5.086035
11.958002 5.022385 5.096766
7.973201 4.992991 5.076903
8.715998 3.380343 5.077435
6.953547 5.012094 3.178082
5.345721 3.364937 5.053186
5.980497 5.001357 5.059462
7.010940 3.676152 5.062348
5.133104 2.376140 3.185729
4.616069 5.007804 3.336891
3.479993 3.188805 5.033551
3.985395 5.000006 5.041170
2.367725 5.004917 3.305106
4.856513 1.622204 0.045018
4.910837 0.005710 1.916412
6.740999 1.669140 0.067368
7.006085 2.571771 2.258056
8.644373 0.001905 3.403070
17.322996 5.061682 3.502294
15.312368 5.062027 3.466665
15.965754 5.053142 5.145428
14.687613 1.662955 5.113819
15.236909 3.360102 5.126392
12.035487 0.043909 0.082702
15.365786 3.409531 0.138373
14.018319 5.061904 0.121136
12.655069 5.037229 1.767122
13.302968 5.044022 3.438692
7.249264 0.007229 1.756748
6.659055 -0.001397 3.434466
4.895142 1.638857 5.043881
5.984477 -0.013303 5.048134
4.905964 -0.003156 3.700406
3.987895 -0.009545 5.028832
7.028278 1.877608 5.059093
7.983644 -0.012814 5.056806
9.256141 1.684961 5.071054
20.970963 1.927998 5.233400
22.680250 3.423084 5.264735
23.977884 5.022686 5.284939
24.644539 3.374616 5.280968
23.320518 5.029382 3.609974
27.325699 5.036210 3.635355
26.664579 5.028722 1.963313
25.326262 5.034822 3.629007
35.152649 1.657537 0.302142
36.833210 1.518461 0.287463
39.994331 3.287966 3.925604
39.997974 1.681431 2.881549
38.293877 5.042353 2.849179
39.995354 3.302848 2.200340
39.988514 5.045237 3.646126
37.984585 5.018783 5.314216
39.977936 5.034879 5.317944
39.993763 3.363004 5.302338
39.998566 1.694759 5.281367
40.004932 0.044483 3.604946
40.000515 0.062060 1.940861
39.998169 0.068117 0.273755
39.995842 1.734199 0.282263
39.994621 3.396505 0.299235
38.303844 2.531083 0.291102
37.990318 5.057599 0.315428
39.984177 5.057044 1.980205
36.823093 5.024297 3.862835
36.495251 5.045081 2.141158
36.500393 3.241208 0.306724
35.990967 5.063859 0.322664
34.589996 3.358999 0.315720
33.992725 5.054548 0.330311
30.656666 3.359833 0.303935
30.000975 5.025187 0.305593
31.995520 5.038298 0.318727
30.650663 5.025016 1.977268
28.668358 3.362637 0.289721
26.719255 0.028784 3.681845
27.272673 0.025826 1.993032
25.299124 1.708643 5.285731
23.974255 0.042414 5.294477
25.985029 0.041254 5.297182
24.988518 0.033648 3.974525
23.237108 1.734571 5.281332
23.264488 0.038550 3.668517
21.256990 0.038794 3.557303
21.968241 0.034539 5.258791
19.959387 0.044937 5.214684
17.975956 5.049260 5.179763
19.975466 5.036541 5.211493
22.746256 0.033434 1.959968
25.003183 0.026516 2.188600
24.025766 0.024028 0.284242
26.015461 0.016899 0.307428
26.010820 5.028260 0.292495
25.693884 2.266238 3.778466
28.661348 5.022389 1.966359
28.006340 5.020441 0.295394
25.987318 5.038589 5.294171
12.010563 5.035645 0.095304
12.967654 3.150812 5.100103
13.960696 5.044181 5.112189
21.971930 5.035803 5.246568
28.729532 0.030464 3.603319
29.321188 5.033582 3.639359
29.998655 5.023494 5.305239
31.307066 5.023363 3.649301
31.996094 0.016810 5.303239
34.004097 0.010746 5.300900
35.993515 5.009047 5.325979
32.627052 5.036668 1.998369
20.719463 1.710713 0.228080
20.739456 0.036735 1.850511
24.027548 5.040464 0.283379
27.990803 5.032120 5.299201
39.975883 5.075150 0.313038
3.174914 1.460446 5.021881
0.000000 3.103853 1.750106
0.000000 5.000000 1.666667
0.000000 3.333333 0.000000
2.000846 5.012616 0.021594
0.000000 5.000000 0.000000
0.000000 5.000000 3.333333
0.000000 0.000000 3.333333
1.695012 2.466361 5.013113
3.035022 -0.001584 3.407922
1.998164 -0.009722 5.012104
0.000000 2.403264 3.370902
0.000000 1.666667 5.000000
0.000000 3.333333 5.000000
0.000000 0.000000 5.000000
27.992155 0.036989 5.293030
29.990974 0.020319 5.297350
35.994308 0.062482 0.279943
40.016064 0.024375 5.260012
8.019794 0.009743 0.071695
1.996554 5.001187 5.024918
3.171696 1.472261 0.031069
4.011333 0.021348 0.031785
22.034676 0.030871 0.257850
0.000000 5.000000 5.000000
6.019332 0.019208 0.050512

CELLS 734 3670
4 0 1 2 3
4 0 4 2 5
4 0 3 2 6
4 4 6 0 2
4 4 6 7 0
4 8 9 10 11
4 12 13 14 15
4 16 17 14 18
4 19 20 18 21
4 20 22 21 23
4 24 25 26 23
4 25 27 26 23
4 26 28 29 30
4 28 29 31 32
4 33 34 32 31
4 31 33 35 32
4 31 33 36 35
4 33 37 36 35
4 38 39 40 31
4 41 42 43 38
4 44 42 45 38
4 44 42 38 43
4 46 38 42 41
4 46 47 40 48
4 49 50 51 52
4 53 54 51 55
4 56 54 55 57
4 56 58 59 57
4 60 59 61 62
4 63 61 64 65
4 66 67 68 69
4 67 70 71 72
4 73 74 75 76
4 74 77 75 76
4 77 78 79 80
4 79 81 75 80
4 77 78 80 82
4 77 83 76 84
4 83 85 76 84
4 85 86 74 84
4 74 86 87 84
4 88 89 86 90
4 91 89 88 90
4 86 88 90 92
4 90 86 92 74
4 86 89 74 90
4 93 94 95 74
4 70 74 72 93
4 70 73 71 72
4 74 96 73 72
4 66 97 93 72
4 96 97 72 93
4 96 98 97 93
4 85 96 74 99
4 96 98 93 99
4 98 89 100 93
4 101 102 100 103
4 104 105 101 106
4 107 58 57 60
4 58 107 57 56
4 53 108 109 55
4 56 110 109 54
4 53 111 109 108
4 112 53 109 52
4 111 112 113 53
4 112 111 113 114
4 115 116 114 117
4 40 28 115 117
4 45 117 118 28
4 119 28 25 44
4 120 44 121 122
4 123 121 124 125
4 125 123 126 124
4 127 128 21 124
4 16 129 128 21
4 16 18 14 130
4 16 17 18 19
4 131 17 132 18
4 16 19 18 21
4 133 16 19 134
4 135 134 133 136
4 135 137 136 138
4 137 134 139 140
4 141 142 143 144
4 145 146 147 7
4 142 148 147 146
4 7 146 147 149
4 10 7 9 146
4 145 150 7 151
4 152 151 150 153
4 16 128 154 124
4 124 21 121 133
4 25 28 30 44
4 28 38 45 40
4 45 47 40 42
4 155 45 156 47
4 157 156 47 155
4 155 45 40 117
4 45 42 158 159
4 44 42 43 158
4 119 45 158 159
4 120 44 158 119
4 25 127 21 121
4 25 27 160 30
4 127 25 160 30
4 25 127 121 30
4 44 25 121 30
4 28 30 44 29
4 119 28 44 45
4 119 28 118 25
4 28 24 26 161
4 26 32 29 28
4 28 31 29 38
4 46 38 41 39
4 46 38 39 40
4 28 117 40 45
4 118 28 117 161
4 162 24 118 161
4 118 119 163 164
4 136 119 164 163
4 25 133 21 163
4 128 16 21 124
4 165 166 153 154
4 166 167 168 169
4 167 168 169 170
4 171 168 172 166
4 124 173 126 154
4 123 121 133 124
4 120 125 122 121
4 122 158 44 43
4 47 46 40 42
4 52 50 174 48
4 175 50 174 54
4 176 175 177 178
4 179 60 180 181
4 64 69 63 65
4 68 72 67 66
4 70 73 182 71
4 74 79 183 75
4 184 78 185 79
4 79 184 186 187
4 186 184 188 187
4 184 189 190 191
4 184 78 79 186
4 78 189 184 191
4 189 184 190 188
4 184 78 191 192
4 184 78 192 185
4 192 78 80 185
4 193 80 194 185
4 195 81 196 194
4 81 79 196 194
4 197 187 196 198
4 187 79 185 196
4 79 184 187 185
4 197 199 187 198
4 199 197 187 200
4 199 200 187 186
4 78 201 79 186
4 189 201 87 78
4 202 201 79 74
4 201 74 92 87
4 201 202 92 74
4 201 202 79 186
4 202 203 74 79
4 202 198 203 79
4 204 202 199 203
4 202 203 205 74
4 202 204 205 203
4 182 203 74 205
4 74 203 183 79
4 79 203 183 198
4 79 81 198 183
4 81 79 198 196
4 187 79 196 198
4 202 198 79 186
4 202 204 94 205
4 94 95 205 206
4 207 208 209 210
4 208 207 211 210
4 104 103 211 65
4 104 60 212 213
4 214 215 216 217
4 218 219 220 221
4 222 174 220 221
4 46 39 222 174
4 52 46 40 48
4 40 49 52 48
4 53 49 52 113
4 40 49 155 113
4 155 45 47 40
4 157 47 223 155
4 49 223 224 48
4 52 50 51 54
4 175 54 57 178
4 218 175 54 57
4 225 219 54 57
4 218 175 57 177
4 57 217 219 218
4 219 225 226 57
4 225 227 226 57
4 59 110 57 227
4 59 60 61 228
4 61 60 213 228
4 64 61 213 228
4 63 61 213 64
4 61 104 211 65
4 180 60 104 62
4 58 229 62 180
4 58 60 180 62
4 60 61 104 62
4 60 226 230 212
4 226 60 213 212
4 60 104 212 230
4 179 60 230 104
4 104 211 231 62
4 180 229 62 232
4 180 232 62 231
4 179 60 104 180
4 233 181 105 179
4 181 105 179 230
4 105 214 106 230
4 105 214 230 177
4 215 214 218 217
4 215 217 218 219
4 218 215 219 221
4 218 175 174 54
4 39 52 220 174
4 39 46 52 174
4 115 52 112 35
4 28 115 117 161
4 162 118 116 161
4 24 162 118 163
4 20 19 234 163
4 25 133 163 119
4 120 119 158 235
4 236 119 235 159
4 235 119 158 159
4 119 235 133 136
4 138 235 236 164
4 45 47 42 159
4 46 38 40 42
4 49 50 52 48
4 237 175 176 178
4 181 233 177 176
4 180 179 231 104
4 207 103 65 211
4 207 103 68 65
4 65 66 103 68
4 103 66 97 93
4 66 103 97 63
4 213 104 63 238
4 238 97 103 63
4 104 102 103 238
4 104 106 212 230
4 214 212 106 230
4 214 212 216 106
4 214 212 217 216
4 214 212 230 217
4 226 217 230 212
4 226 60 230 57
4 181 60 57 230
4 179 105 104 230
4 179 105 101 104
4 104 239 103 101
4 239 101 240 100
4 91 241 240 100
4 241 239 240 100
4 239 241 103 100
4 103 210 93 241
4 103 207 93 210
4 210 103 231 239
4 103 239 104 231
4 103 104 63 65
4 65 66 63 103
4 65 66 68 69
4 68 72 66 93
4 96 98 242 97
4 85 96 99 243
4 85 86 99 74
4 86 89 99 74
4 88 86 244 92
4 74 86 92 87
4 201 244 87 92
4 244 86 87 92
4 90 74 92 94
4 94 95 206 245
4 95 209 206 245
4 245 207 95 209
4 208 232 231 211
4 180 104 231 62
4 181 60 107 57
4 54 175 51 178
4 50 52 174 54
4 246 36 52 247
4 246 36 37 35
4 52 31 36 35
4 31 39 52 36
4 39 46 222 41
4 39 222 174 220
4 174 218 220 221
4 218 219 54 220
4 225 219 220 54
4 56 110 54 57
4 110 56 59 57
4 60 59 226 228
4 60 226 213 228
4 57 217 230 226
4 214 217 230 218
4 218 57 230 177
4 181 105 230 177
4 179 60 181 230
4 58 107 180 60
4 229 107 58 248
4 229 107 180 58
4 60 58 59 62
4 58 107 56 248
4 108 56 109 55
4 108 56 55 248
4 107 56 55 57
4 107 181 57 178
4 57 181 177 178
4 181 176 177 178
4 233 181 177 105
4 249 239 101 240
4 91 89 241 100
4 89 91 241 90
4 210 245 93 241
4 245 241 90 93
4 93 94 90 245
4 74 202 92 94
4 205 204 94 206
4 202 198 199 203
4 202 198 186 199
4 199 197 200 250
4 199 186 187 198
4 200 186 188 187
4 184 189 186 188
4 201 189 87 244
4 189 201 78 186
4 201 78 79 87
4 189 78 184 186
4 186 79 187 198
4 74 201 79 87
4 74 79 84 87
4 79 78 84 87
4 77 78 84 79
4 74 77 84 79
4 74 85 84 76
4 83 243 76 85
4 85 96 243 76
4 73 96 74 76
4 96 93 74 99
4 89 93 99 74
4 93 94 74 90
4 93 94 245 95
4 207 95 68 93
4 95 70 68 93
4 95 70 74 205
4 74 70 182 205
4 94 95 74 205
4 241 89 90 93
4 104 179 231 239
4 181 60 180 107
4 107 57 55 178
4 57 54 55 178
4 53 49 51 52
4 40 49 113 52
4 155 47 223 48
4 45 47 159 156
4 119 156 45 159
4 120 44 119 121
4 16 173 124 154
4 166 167 169 145
4 145 7 147 251
4 9 7 252 149
4 253 254 252 255
4 256 253 255 254
4 6 9 252 255
4 253 257 149 252
4 7 258 259 260
4 260 261 251 170
4 169 260 251 170
4 169 251 167 170
4 166 167 145 171
4 16 22 18 130
4 25 24 20 23
4 24 25 118 28
4 119 156 118 45
4 119 28 45 118
4 119 45 44 158
4 44 38 28 29
4 25 28 26 30
4 25 24 26 28
4 24 20 234 163
4 162 24 234 163
4 163 119 118 25
4 235 135 133 136
4 135 134 140 133
4 145 141 153 144
4 145 260 169 151
4 0 258 4 5
4 259 258 262 263
4 264 259 262 263
4 258 7 262 0
4 260 258 259 261
4 258 261 263 259
4 261 258 263 265
4 261 260 251 259
4 167 251 169 145
4 145 260 251 169
4 166 167 171 168
4 16 171 153 140
4 137 135 136 134
4 138 135 235 136
4 235 138 136 164
4 236 119 156 164
4 157 156 159 47
4 155 47 48 40
4 40 49 48 155
4 46 52 174 48
4 247 225 220 54
4 110 225 57 227
4 60 59 57 226
4 104 61 211 62
4 232 211 62 231
4 103 104 211 231
4 239 210 103 241
4 241 93 103 100
4 68 72 93 70
4 103 207 68 93
4 207 103 211 210
4 210 208 231 211
4 103 210 231 211
4 245 207 210 93
4 245 207 209 210
4 245 207 93 95
4 70 95 74 93
4 70 73 74 182
4 182 203 183 74
4 202 74 205 94
4 93 89 90 74
4 89 241 100 93
4 93 98 103 100
4 101 104 102 103
4 104 101 102 106
4 106 238 104 212
4 266 216 212 106
4 106 238 212 266
4 106 238 102 104
4 267 266 238 102
4 97 102 267 238
4 106 238 266 102
4 97 102 238 103
4 97 102 103 98
4 97 102 98 267
4 97 98 242 267
4 96 98 99 242
4 89 98 99 93
4 239 101 100 103
4 104 179 239 101
4 179 249 239 101
4 105 179 101 249
4 233 105 249 179
4 177 181 57 230
4 175 57 177 178
4 175 237 51 178
4 55 54 51 178
4 112 111 109 53
4 112 53 52 113
4 117 115 113 114
4 116 118 117 161
4 115 116 117 161
4 28 115 161 32
4 29 32 26 34
4 26 30 29 27
4 34 26 29 27
4 29 34 31 32
4 31 115 32 35
4 31 115 28 32
4 246 112 52 35
4 246 247 52 54
4 247 110 225 54
4 59 227 57 226
4 213 104 238 212
4 104 103 63 238
4 97 98 103 93
4 70 73 72 74
4 71 182 268 73
4 182 75 268 73
4 182 75 183 268
4 183 81 268 75
4 182 75 74 183
4 79 81 183 75
4 79 81 80 194
4 78 192 80 82
4 192 193 80 82
4 269 193 192 82
4 193 192 80 185
4 80 79 194 185
4 77 74 75 79
4 85 96 76 74
4 96 243 242 99
4 98 102 103 100
4 104 105 106 230
4 214 218 230 177
4 50 175 51 54
4 49 155 223 48
4 157 156 236 159
4 236 119 159 156
4 235 119 164 136
4 236 119 164 235
4 133 235 120 123
4 120 235 133 119
4 135 123 235 133
4 124 173 123 126
4 173 172 126 154
4 166 171 154 172
4 172 171 154 173
4 171 16 154 173
4 171 166 154 153
4 16 171 154 153
4 124 173 16 133
4 124 173 133 123
4 25 133 119 121
4 19 16 133 21
4 163 19 133 21
4 134 19 133 136
4 133 119 136 163
4 133 19 163 136
4 132 20 18 19
4 20 132 234 19
4 20 19 163 21
4 22 20 21 18
4 16 22 21 18
4 128 129 127 21
4 160 129 21 127
4 160 21 25 127
4 25 20 21 23
4 25 27 23 160
4 25 27 30 26
4 23 22 21 160
4 16 129 21 22
4 128 130 165 270
4 128 130 270 129
4 128 130 16 165
4 16 165 153 154
4 17 16 14 153
4 131 17 18 14
4 17 141 153 15
4 12 10 15 153
4 15 17 14 153
4 153 16 14 130
4 16 129 22 130
4 128 130 129 16
4 16 128 165 154
4 151 166 153 165
4 260 145 7 151
4 9 6 252 7
4 7 262 252 149
4 260 259 7 251
4 7 259 147 251
4 264 259 271 149
4 259 7 147 149
4 146 148 147 149
4 271 259 147 149
4 148 271 147 149
4 146 142 143 141
4 144 141 140 139
4 141 134 140 139
4 143 141 144 139
4 142 145 141 146
4 145 142 141 144
4 148 142 143 146
4 145 7 10 146
4 145 150 151 153
4 151 272 150 7
4 151 272 273 150
4 151 272 4 273
4 4 272 2 273
4 151 272 7 4
4 4 260 7 151
4 166 145 151 153
4 166 145 169 151
4 171 166 153 145
4 133 16 140 173
4 124 16 21 133
4 25 21 160 23
4 21 129 160 22
4 121 21 124 127
4 121 120 133 119
4 123 121 125 120
4 123 121 120 133
4 25 133 121 21
4 25 20 163 21
4 118 24 28 161
4 26 28 161 32
4 40 115 28 31
4 115 52 113 112
4 246 112 109 52
4 246 52 109 54
4 56 54 109 55
4 56 107 55 248
4 58 60 59 57
4 63 61 65 104
4 68 72 70 67
4 182 75 73 74
4 77 79 75 80
4 196 79 185 194
4 79 78 185 80
4 77 78 82 84
4 83 77 82 84
4 77 74 84 76
4 96 74 93 72
4 103 66 93 68
4 65 66 69 63
4 63 61 104 213
4 61 60 104 213
4 59 227 226 228
4 274 110 227 225
4 246 36 247 37
4 246 36 35 52
4 52 115 40 31
4 28 31 38 40
4 44 42 158 45
4 120 44 122 158
4 135 133 140 173
4 171 16 173 140
4 171 144 153 140
4 141 144 140 153
4 10 141 15 153
4 10 12 15 13
4 10 8 12 13
4 8 10 12 11
4 8 9 11 255
4 9 253 149 252
4 257 262 149 252
4 262 259 149 7
4 258 7 4 260
4 259 258 7 262
4 262 0 7 252
4 0 6 7 252
4 254 6 252 255
4 0 3 6 252
4 6 3 254 252
4 272 6 11 7
4 4 6 272 7
4 4 6 2 272
4 9 6 11 255
4 9 253 252 255
4 262 264 257 149
4 257 264 275 271
4 259 264 262 149
4 257 264 271 149
4 9 146 7 149
4 10 7 11 9
4 7 12 10 11
4 145 150 153 12
4 12 145 10 153
4 145 146 10 141
4 145 142 147 146
4 171 145 153 144
4 171 142 145 144
4 142 171 145 167
4 142 145 147 167
4 167 145 147 251
4 145 260 7 251
4 145 150 12 7
4 12 145 7 10
4 12 152 153 14
4 152 153 14 130
4 152 151 153 165
4 165 152 276 270
4 152 151 165 276
4 165 152 270 130
4 152 151 276 150
4 276 150 151 273
4 272 7 11 150
4 7 12 11 150
4 153 150 152 12
4 165 16 153 130
4 165 152 130 153
4 15 12 153 14
4 13 131 14 15
4 17 131 15 14
4 17 132 18 19
4 25 24 163 20
4 25 24 118 163
4 119 156 164 118
4 118 117 45 156
4 155 45 117 156
4 113 40 117 155
4 50 49 224 48
4 49 50 224 51
4 50 237 224 51
4 237 50 175 51
4 52 54 220 174
4 52 247 220 54
4 39 247 220 52
4 39 247 52 36
4 115 52 35 31
4 40 115 52 113
4 40 115 113 117
4 115 112 113 114
4 53 52 51 54
4 54 53 109 55
4 52 53 109 54
4 110 246 109 54
4 247 110 54 246
4 247 110 274 225
4 246 274 37 247
4 247 110 246 274
4 110 225 54 57
4 57 217 226 219
4 57 217 218 230
4 219 218 54 57
4 218 54 174 220
4 46 39 52 40
4 39 31 52 40
4 38 42 45 40
4 28 38 44 45
4 121 25 44 119
4 123 135 173 133
4 134 153 140 16
4 134 16 140 133
4 137 135 134 140
4 134 153 141 140
4 134 153 16 17
4 16 17 19 134
4 134 153 17 141
4 153 145 10 141
4 6 9 11 7
4 258 7 0 4
4 1 0 2 5

CELL_TYPES 734
10
10
10
10
10
10
10
10
10
10
10
10
10
10
10
10
10
10
10
10
10
10
10
10
10
10
10
10
10
10
10
10
10
10
10
10
10
10
10
10
10
10
10
10
10
10
10
10
10
10
10
10
10
10
10
10
10
10
10
10
10
10
10
10
10
10
10
10
10
10
10
10
10
10
10
10
10
10
10
10
10
10
10
10
10
10
10
10
10
10
10
10
10
10
10
10
10
10
10
10
10
10
10
10
10
10
10
10
10
10
10
10
10
10
10
10
10
10
10
10
10
10
10
10
10
10
10
10
10
10
10
10
10
10
10
10
10
10
10
10
10
10
10
10
10
10
10
10
10
10
10
10
10
10
10
10
10
10
10
10
10
10
10
10
10
10
10
10
10
10
10
10
10
10
10
10
10
10
10
10
10
10
10
10
10
10
10
10
10
10
10
10
10
10
10
10
10
10
10
10
10
10
10
10
10
10
10
10
10
10
10
10
10
10
10
10
10
10
10
10
10
10
10
10
10
10
10
10
10
10
10
10
10
10
10
10
10
10
10
10
10
10
10
10
10
10
10
10
10
10
10
10
10
10
10
10
10
10
10
10
10
10
10
10
10
10
10
10
10
10
10
10
10
10
10
10
10
10
10
10
10
10
10
10
10
10
10
10
10
10
10
10
10
10
10
10
10
10
10
10
10
10
10
10
10
10
10
10
10
10
10
10
10
10
10
10
10
10
10
10
10
10
10
10
10
10
10
10
10
10
10
10
10
10
10
10
10
10
10
10
10
10
10
10
10
10
10
10
10
10
10
10
10
10
10
10
10
10
10
10
10
10
10
10
10
10
10
10
10
10
10
10
10
10
10
10
10
10
10
10
10
10
10
10
10
10
10
10
10
10
10
10
10
10
10
10
10
10
10
10
10
10
10
10
10
10
10
10
10
10
10
10
10
10
10
10
10
10
10
10
10
10
10
10
10
10
10
10
10
10
10
10
10
10
10
10
10
10
10
10
10
10
10
10
10
10
10
10
10
10
10
10
10
10
10
10
10
10
10
10
10
10
10
10
10
10
10
10
10
10
10
10
10
10
10
10
10
10
10
10
10
10
10
10
10
10
10
10
10
10
10
10
10
10
10
10
10
10
10
10
10
10
10
10
10
10
10
10
10
10
10
10
10
10
10
10
10
10
10
10
10
10
10
10
10
10
10
10
10
10
10
10
10
10
10
10
10
10
10
10
10
10
10
10
10
10
10
10
10
10
10
10
10
10
10
10
10
10
10
10
10
10
10
10
10
10
10
10
10
10
10
10
10
10
10
10
10
10
10
10
10
10
10
10
10
10
10
10
10
10
10
10
10
10
10
10
10
10
10
10
10
10
10
10
10
10
10
10
10
10
10
10
10
10
10
10
10
10
10
10
10
10
10
10
10
10
10
10
10
10
10
10
10
10
10
10
10
10
10
10
10
10
10
10
10
10
10
10
10
10
10
10
10
10
10
10
10
10
10
10
10
10
10
10
10
10
10
10
10
10
10
10
10
10
10
10
10
10
10
10
10
10
10
10
10
10
10
10
10
10
10
10
10
10
10
10
10
10
10
10
10
10
10
10
10
10
10
10
10
10
10
10
10
10
10
10
10
10
10
10
10
10
10
10
10
10
10
10
10
10
10
10
10
10

CELL_DATA 734
SCALARS potentialEnergy FLOAT 1
LOOKUP_TABLE default
160.039978
149.172775
222.353699
177.303940
92.727287
56.668766
58.713749
24.322752
97.288246
104.406006
77.205650
72.663242
27.128267
68.145977
150.253387
143.136703
92.778122
66.188400
51.271427
112.158844
158.947617
58.280075
33.978033
73.078503
54.107082
162.927200
138.043793
175.200012
82.919159
88.239761
32.345955
234.104309
184.960541
33.685825
52.294205
103.348946
48.708557
42.397274
46.413464
135.553383
50.817406
24.889472
29.338751
27.540470
23.039296
18.629095
122.149887
205.681549
61.694008
105.834877
59.538193
46.222424
49.105183
85.743584
57.799908
48.840988
53.854454
79.880409
142.048981
291.244080
142.555984
107.268562
95.061722
138.233932
71.355206
93.814896
69.078438
80.028122
153.543594
53.096542
71.852257
29.958727
40.289015
133.316788
66.284973
79.762321
33.716061
29.274427
72.501064
111.169388
74.574829
97.359276
58.472473
79.300491
142.998947
44.821747
139.423706
101.251419
97.873611
91.315369
101.002815
148.812546
89.939980
64.970028
53.194298
104.514664
174.337570
109.816597
39.405750
83.839523
32.452536
47.763237
94.570221
83.806900
167.180939
70.875908
27.958597
27.641979
73.357056
70.787659
61.717026
53.014061
52.880287
36.155489
144.379410
81.217476
154.896118
104.998932
84.401482
87.552963
128.281517
101.527267
116.906616
54.259483
33.373844
32.857182
32.565468
105.228127
105.422066
111.341278
84.997726
87.902916
129.150826
74.023514
197.890778
48.363625
47.150490
60.454369
73.238400
24.072553
68.940269
37.161869
93.560623
36.654692
32.559578
69.485020
32.035156
25.678193
75.679482
76.049690
179.914841
99.712769
46.518276
88.217758
175.897522
103.353798
115.808601
36.268526
36.487991
67.262787
95.061081
58.127159
73.975422
43.274605
80.776657
74.362297
46.739918
135.260811
88.856239
89.409409
48.947815
83.275345
31.597143
43.262070
81.887856
47.132042
78.101791
89.126190
61.385803
51.975971
138.381409
83.881248
78.336250
51.524193
111.797691
87.990990
106.397934
143.635956
121.646606
55.072315
65.146145
109.325157
38.072540
135.542557
172.772827
156.021774
137.636803
134.440666
38.788593
148.707397
59.741039
163.322617
72.810112
67.108833
79.919502
67.448296
93.209000
113.501198
43.863964
94.517738
131.796906
93.338722
105.833076
36.803856
127.302376
152.228638
43.192944
43.467743
38.722822
33.548466
131.789932
41.434069
42.655193
77.625046
70.046062
80.668259
134.551224
316.431335
198.056259
178.025772
77.377480
124.111641
82.494370
66.437119
194.635025
20.051313
50.461166
92.636955
121.175186
73.552032
73.827370
117.454071
127.355522
112.043373
101.105042
79.044350
41.985744
56.290390
59.224327
66.636852
53.179379
123.093636
144.074188
239.392487
102.188393
50.311081
43.709049
51.213070
83.541153
103.136765
56.853237
36.077517
35.675356
133.372658
32.162613
22.078516
72.470135
50.305569
45.542259
28.121891
76.359016
96.762367
92.631775
130.916725
102.375687
46.895996
87.365013
30.753834
81.356659
72.000118
49.230972
19.090167
45.358997
36.337570
19.568194
55.842335
41.351536
74.858421
141.509903
79.416176
100.181183
37.587959
208.694351
125.203598
261.114029
176.322998
139.198975
71.544285
74.541481
74.082954
75.758934
144.859360
57.208355
119.648994
138.530945
48.720886
155.711227
36.747530
94.829948
64.575516
71.473881
50.579815
52.998100
154.551376
108.791237
67.362598
119.254707
104.946602
59.701065
83.715446
66.656479
131.488327
63.594509
70.250984
175.258621
97.859489
33.391752
144.228516
167.374588
66.630329
116.708626
76.553680
69.979237
107.202469
167.130661
38.049595
16.545645
46.682167
55.980721
124.530296
131.614258
86.354568
38.226074
152.451477
64.903893
43.845486
64.284546
87.233963
52.216209
62.960743
69.658947
121.441650
29.362436
40.546648
71.763374
93.647278
190.797272
181.317398
129.330208
113.390991
90.265289
97.016632
85.530968
42.172909
72.630360
89.617073
44.118652
110.906403
52.802502
59.733627
51.806152
117.905151
104.713768
53.661491
99.862808
187.439987
116.186882
99.401627
225.394272
123.881874
131.848007
91.375168
60.146206
76.100983
83.642830
76.327782
76.898987
70.580296
52.875713
87.345551
98.670921
33.247435
48.877876
81.723190
86.782280
100.031494
176.128464
185.852890
55.351936
135.847359
54.812786
57.246590
215.991409
151.852646
80.411987
233.568863
130.795883
63.352264
82.291664
124.384239
90.935432
57.398273
45.014416
53.212620
117.089798
74.010590
66.469528
35.497898
102.894455
128.528526
138.387451
94.209312
107.452202
38.189787
78.017952
52.280739
200.935104
39.672245
32.343607
180.109573
79.116974
100.590256
48.059574
105.490822
148.507935
110.578583
219.687805
129.137123
136.010094
71.553181
93.705215
43.842838
47.713253
46.152702
49.295544
89.539558
140.363480
116.485298
30.504335
83.176476
53.861649
53.575027
71.278385
87.458954
82.856216
45.310955
72.586697
44.534702
42.480221
86.264351
34.562834
163.118042
39.892263
44.028706
106.672974
90.557175
83.721397
140.324677
82.806503
154.350311
48.123425
102.362289
26.461950
209.737015
33.776922
37.374527
71.425983
46.644352
112.339104
56.129166
239.588226
130.326256
72.840939
83.848671
151.492386
65.882942
75.538147
101.806755
81.278755
98.468536
104.251945
26.669064
104.311050
78.996353
50.262630
33.449709
71.052677
167.529327
24.860466
56.093063
179.553162
145.686157
65.454277
55.730183
48.940979
65.261288
189.743668
76.969528
80.194435
89.711342
81.237587
69.393124
82.269913
73.779831
119.522980
29.339111
40.320835
46.135494
53.799412
46.361843
43.795708
61.075489
91.684715
100.211868
146.512497
80.969284
69.533867
87.534561
88.579185
44.919617
94.464561
76.030174
77.649071
91.860245
55.104156
82.797951
120.846146
53.276688
66.007030
80.561470
30.845200
69.924347
69.649719
38.388155
68.197937
52.781189
93.480858
26.579905
22.721584
31.663683
34.220751
29.868446
56.462162
48.864010
38.098803
87.309883
67.750561
91.255722
125.375191
126.241760
127.299698
66.363495
183.986130
100.459663
29.567076
148.099594
289.134766
74.186852
72.680874
67.508263
66.300758
159.839691
95.719162
46.789833
121.919357
90.612381
134.431633
48.947395
126.671722
106.908821
131.656609
155.971222
100.918732
88.352104
161.647415
91.648354
163.543381
49.900749
125.105629
95.530510
165.517212
51.739475
133.911469
294.655548
126.787766
160.051224
38.838640
98.900932
119.057335
119.863190
136.795074
133.638847
49.009682
52.965340
138.997070
84.372971
147.123596
60.597801
122.496452
26.741795
32.599863
83.946556
77.157707
89.104805
122.352135
45.505322
122.466599
51.858192
105.449997
54.762383
92.043785
182.988602
242.815063
68.105991
81.551430
29.573996
193.446274
22.689320
85.241104
100.272758
29.978996
58.666733
54.827152
79.453911
56.948154
136.436958
160.718338
68.608608
65.512115
99.393333
61.143959
118.993187
129.012482
302.571167
292.011230
82.567558
119.241058
145.382217
91.642273
147.948746
163.702652
166.035904
110.849983
108.538246
76.628632
82.114876
102.094902
53.425182
53.089054
80.316078
96.552376
83.184250
92.668228
130.698517
103.163979
87.404396
155.291397
89.728256
88.152855
63.549736
84.350075
107.465149
53.834934
42.457024
57.273209
32.178682
87.502663
106.885864
128.904572
58.430954
55.935936
81.517860
41.864126
114.028526
29.094702
80.876076
138.796967
141.240768
70.632195
80.587349
84.764381
236.981842
40.172571
102.669449
69.418133
68.096222
276.174896
94.617393
206.926971
104.674179
169.878860
117.828957
165.963730
182.490067
59.954494
171.626297
118.196693
111.143875
78.080528
96.586891
109.340347
40.683270
117.760231
91.906197
64.972042
241.808868
183.262451
141.093155
127.994720
69.807926
147.788345
74.673241
69.284031
75.823441
203.372330
36.990141
120.801865
57.245968
91.879318
74.441200
64.355717
243.487350
75.941574
127.874840

