# vtk DataFile Version 3.1
Tetrahedral Mesh Visualization
ASCII
DATASET UNSTRUCTURED_GRID

POINTS 277 FLOAT
0.000000 1.378113 1.754166
0.000000 0.000000 0.000000
2.001876 0.009448 -0.007516
0.000000 1.666667 0.000000
2.419556 0.013560 1.725312
0.000000 0.000000 1.666667
1.694202 2.474099 -0.007615
2.996566 2.469563 2.314775
4.003232 5.007305 -0.011751
3.075068 5.009986 1.632085
5.213338 5.007139 1.592490
3.493454 3.187527 -0.009424
5.417179 3.312617 -0.013518
6.015069 5.001843 -0.015979
7.387057 3.340923 -0.005252
6.976813 5.002672 1.311395
9.254489 2.185327 2.051481
8.702267 5.004241 1.615352
9.378549 3.337403 0.022789
10.670053 5.003276 1.698281
11.374323 3.334230 0.056144
11.118077 1.866130 1.607184
10.699181 1.669384 0.041711
12.699703 1.674613 0.075550
13.377614 3.339534 0.093849
12.984443 1.878459 1.573630
14.701795 1.673398 0.104849
14.025613 0.008032 0.085657
15.479770 2.139758 1.808304
15.337415 0.001280 1.758898
13.334632 0.001339 1.741035
17.301188 0.006507 1.740965
16.709341 1.680815 0.136202
18.045067 0.019185 0.148755
16.035986 0.014911 0.114575
18.723381 1.689526 0.167840
19.026709 0.016246 1.481804
20.059917 0.038807 0.183947
16.708261 -0.005382 3.425753
18.979893 -0.003740 3.270116
17.691402 2.679791 3.107124
17.937777 -0.015839 5.147704
16.629536 1.648915 5.139565
15.939095 -0.015437 5.112514
14.657460 -0.000004 3.422120
15.755422 2.882193 3.484003
18.673101 1.679151 5.171422
17.260046 3.323003 5.161694
19.222952 3.371327 5.194143
19.310932 4.993643 3.541379
20.930820 3.653209 5.241113
21.310106 4.993606 3.604937
19.624788 2.492855 2.544927
20.681458 5.006931 1.918929
21.913542 2.514541 2.739714
22.687489 5.009769 1.996696
23.366013 3.421488 0.332019
23.974258 2.449475 2.640635
25.075571 3.712409 0.395353
25.072128 1.922565 0.368900
25.999243 2.511568 2.140702
27.345213 1.736679 0.440981
26.786530 3.425929 0.453815
29.289608 0.003166 2.112603
28.085524 0.033482 0.446856
29.391783 1.701280 0.528691
31.014685 0.013517 1.886611
32.081116 0.035345 0.612218
31.393492 1.702022 0.610562
30.083582 0.029773 0.530103
33.359478 1.688543 0.694426
34.076687 0.034928 0.689879
32.695332 0.007828 2.248946
34.601566 0.006526 2.399608
34.967197 2.404087 3.313230
36.500465 -0.003936 2.642146
35.072525 -0.024957 4.128850
36.745457 -0.023049 4.380407
38.145630 2.468897 5.960846
37.680393 2.146540 3.108667
38.262054 -0.029290 3.443153
38.072163 0.004153 0.900749
37.830597 -0.059756 5.894243
35.845303 -0.044360 5.790719
36.409878 1.710036 5.847544
34.797779 1.297682 5.757182
34.718361 3.105767 5.786136
36.617210 3.441547 5.877714
33.881870 4.981555 5.765152
32.578388 3.278462 5.688495
33.230114 4.995291 4.082268
31.886570 4.974736 5.684544
35.109051 4.985548 4.206664
32.192539 2.606811 3.083280
34.620934 5.024053 2.491584
32.727249 3.368646 0.694228
33.156704 -0.014153 3.971244
30.949282 -0.009372 3.673397
31.205460 1.628497 5.598312
33.127312 1.576699 5.683271
30.557386 3.298239 5.600277
28.565231 3.292011 5.516417
29.229061 1.625927 5.525283
30.006330 2.500046 3.033609
27.949694 2.493906 2.955205
26.577410 3.290199 5.449119
27.236158 1.620144 5.448893
24.688066 5.005476 2.076301
22.076866 5.031270 0.310041
21.404106 3.374084 0.260221
22.805040 1.733359 0.286754
20.062229 5.019208 0.236299
19.394983 3.356741 0.199481
18.674101 5.000112 1.862135
18.046759 5.014900 0.188646
17.384113 3.346422 0.157003
16.042728 5.006694 0.149323
16.672035 4.996248 1.825602
14.673769 4.997425 1.790734
13.676950 2.959171 3.367596
12.948200 1.316111 5.080129
12.644908 0.000150 3.400311
13.943091 -0.007726 5.087111
11.234323 1.609363 5.057032
10.636082 -0.000822 3.380700
11.950650 -0.007099 5.061278
9.953034 -0.000723 5.040100
11.327025 0.002981 1.719162
9.307139 0.009448 1.694699
10.018519 0.009785 0.034025
8.705562 1.676455 0.014388
8.029448 5.002355 -0.006282
10.038634 5.001366 0.028797
11.207563 2.637754 3.337526
9.241291 5.010735 3.313627
10.701880 3.309883 5.045492
11.291176 4.995879 3.383347
9.962123 5.001846 5.032586
11.953623 4.992522 5.074957
7.977235 5.015099 4.997344
8.714525 3.398939 5.009774
6.956888 5.017903 3.102313
5.344733 3.385974 4.995614
5.984487 5.023959 4.986561
7.010091 3.697420 4.996700
5.136578 2.384633 3.131022
4.618062 5.011393 3.276153
3.479797 3.200430 4.992268
3.987906 5.014394 4.984381
2.368374 5.013885 3.270985
4.846905 1.617398 -0.007547
4.900127 0.013712 1.868388
6.738191 1.672647 -0.000255
7.013403 2.578051 2.189531
8.633286 0.009275 3.357693
17.311836 4.993030 3.503633
15.313344 4.999189 3.467827
15.951478 4.991610 5.147970
14.661510 1.601404 5.108050
15.214250 3.296805 5.123850
12.022732 0.011975 0.062179
15.380144 3.337200 0.125458
14.044946 5.007608 0.116083
12.669147 4.999529 1.745181
13.304917 4.995626 3.428139
7.241092 0.018274 1.694706
6.652597 0.012331 3.377842
4.895236 1.662582 5.001057
5.974834 0.011876 5.002091
4.901248 0.014534 3.658942
3.988250 0.011231 4.999238
7.021228 1.902553 4.998883
7.960124 0.011168 5.014178
9.239967 1.696587 5.028953
20.928394 1.866538 5.227864
22.637186 3.355145 5.308064
23.926884 4.956403 5.389649
24.587662 3.299376 5.385985
23.306816 4.986897 3.691061
27.295780 4.987983 3.830228
26.681532 5.011444 2.142665
25.302845 4.984179 3.768289
35.244637 1.641907 0.779506
36.923027 1.472085 0.871564
39.917774 3.193594 4.677067
39.956123 1.585710 3.625555
38.293640 4.969707 3.507811
40.007221 3.212907 2.951027
39.943718 4.947064 4.397283
37.855518 4.956683 5.960589
39.852859 4.945432 6.058325
39.852196 3.270033 6.046910
39.834148 1.592029 6.026692
39.913345 -0.053490 4.329412
39.992802 -0.036829 2.663461
40.071636 -0.016940 0.998108
40.090664 1.643111 1.029494
40.110889 3.306270 1.056627
38.405140 2.461310 0.959926
38.125824 4.984832 0.961766
40.037422 4.958283 2.732438
36.777950 4.973793 4.438978
36.534092 4.994392 2.699199
36.612255 3.195380 0.870590
36.112541 5.014767 0.862244
34.687923 3.343659 0.785874
34.099056 5.044876 0.779198
30.737991 3.370551 0.605731
30.086802 5.032293 0.602899
32.089104 5.034138 0.686602
30.675526 5.014589 2.297762
28.745188 3.375359 0.518911
26.694935 -0.013272 3.777659
27.282198 0.012233 2.099421
25.236851 1.630630 5.377172
23.922197 -0.035325 5.311344
25.918478 -0.043991 5.372476
24.964888 -0.017118 4.018596
23.189943 1.661956 5.310114
23.246397 -0.008256 3.673056
21.236610 0.003362 3.523896
21.916431 -0.033173 5.234382
19.927767 -0.031411 5.179617
17.945654 4.987317 5.179459
19.938223 4.978153 5.224829
22.758841 0.017747 1.957968
25.015581 0.005725 2.228852
24.073526 0.036298 0.309790
26.077286 0.042939 0.372892
26.079412 5.032693 0.451841
25.670053 2.218779 3.883283
28.678871 5.010906 2.203468
28.079073 5.033096 0.519008
25.923372 4.955353 5.459183
12.042359 5.000975 0.068041
12.953196 3.107090 5.087193
13.952430 5.000997 5.105351
21.932241 4.965744 5.299660
28.696507 -0.008910 3.784388
29.285578 4.986379 3.896246
29.888336 4.968650 5.594657
31.271065 4.991282 3.992726
31.883602 -0.029242 5.608884
33.864021 -0.035807 5.698844
35.873569 4.970944 5.851970
32.658031 5.015864 2.381433
20.748289 1.707829 0.211576
20.749161 0.025807 1.810054
24.081650 5.026644 0.385534
27.910212 4.959898 5.526468
40.128750 4.977255 1.077533
3.176976 1.475052 4.992538
0.000000 3.103853 1.750106
0.000000 5.000000 1.666667
0.000000 3.333333 0.000000
1.999315 5.005962 -0.010885
0.000000 5.000000 0.000000
0.000000 5.000000 3.333333
0.000000 0.000000 3.333333
1.695985 2.479776 4.997075
3.030527 0.011636 3.380384
1.998227 0.006050 4.994779
0.000000 2.403264 3.370902
0.000000 1.666667 5.000000
0.000000 3.333333 5.000000
0.000000 0.000000 5.000000
27.908894 -0.050017 5.443587
29.898968 -0.039303 5.528218
36.077347 0.031174 0.794729
39.822483 -0.075510 5.997484
8.013474 0.018316 0.007553
1.997853 5.010824 4.996927
3.165248 1.467387 -0.011398
3.999935 0.011497 -0.010123
22.070608 0.039278 0.245032
0.000000 5.000000 5.000000
6.008961 0.020429 -0.002189

CELLS 734 3670
4 0 1 2 3
4 0 4 2 5
4 0 3 2 6
4 4 6 0 2
4 4 6 7 0
4 8 9 10 11
4 12 13 14 15
4 16 17 14 18
4 19 20 18 21
4 20 22 21 23
4 24 25 26 23
4 25 27 26 23
4 26 28 29 30
4 28 29 31 32
4 33 34 32 31
4 31 33 35 32
4 31 33 36 35
4 33 37 36 35
4 38 39 40 31
4 41 42 43 38
4 44 42 45 38
4 44 42 38 43
4 46 38 42 41
4 46 47 40 48
4 49 50 51 52
4 53 54 51 55
4 56 54 55 57
4 56 58 59 57
4 60 59 61 62
4 63 61 64 65
4 66 67 68 69
4 67 70 71 72
4 73 74 75 76
4 74 77 75 76
4 77 78 79 80
4 79 81 75 80
4 77 78 80 82
4 77 83 76 84
4 83 85 76 84
4 85 86 74 84
4 74 86 87 84
4 88 89 86 90
4 91 89 88 90
4 86 88 90 92
4 90 86 92 74
4 86 89 74 90
4 93 94 95 74
4 70 74 72 93
4 70 73 71 72
4 74 96 73 72
4 66 97 93 72
4 96 97 72 93
4 96 98 97 93
4 85 96 74 99
4 96 98 93 99
4 98 89 100 93
4 101 102 100 103
4 104 105 101 106
4 107 58 57 60
4 58 107 57 56
4 53 108 109 55
4 56 110 109 54
4 53 111 109 108
4 112 53 109 52
4 111 112 113 53
4 112 111 113 114
4 115 116 114 117
4 40 28 115 117
4 45 117 118 28
4 119 28 25 44
4 120 44 121 122
4 123 121 124 125
4 125 123 126 124
4 127 128 21 124
4 16 129 128 21
4 16 18 14 130
4 16 17 18 19
4 131 17 132 18
4 16 19 18 21
4 133 16 19 134
4 135 134 133 136
4 135 137 136 138
4 137 134 139 140
4 141 142 143 144
4 145 146 147 7
4 142 148 147 146
4 7 146 147 149
4 10 7 9 146
4 145 150 7 151
4 152 151 150 153
4 16 128 154 124
4 124 21 121 133
4 25 28 30 44
4 28 38 45 40
4 45 47 40 42
4 155 45 156 47
4 157 156 47 155
4 155 45 40 117
4 45 42 158 159
4 44 42 43 158
4 119 45 158 159
4 120 44 158 119
4 25 127 21 121
4 25 27 160 30
4 127 25 160 30
4 25 127 121 30
4 44 25 121 30
4 28 30 44 29
4 119 28 44 45
4 119 28 118 25
4 28 24 26 161
4 26 32 29 28
4 28 31 29 38
4 46 38 41 39
4 46 38 39 40
4 28 117 40 45
4 118 28 117 161
4 162 24 118 161
4 118 119 163 164
4 136 119 164 163
4 25 133 21 163
4 128 16 21 124
4 165 166 153 154
4 166 167 168 169
4 167 168 169 170
4 171 168 172 166
4 124 173 126 154
4 123 121 133 124
4 120 125 122 121
4 122 158 44 43
4 47 46 40 42
4 52 50 174 48
4 175 50 174 54
4 176 175 177 178
4 179 60 180 181
4 64 69 63 65
4 68 72 67 66
4 70 73 182 71
4 74 79 183 75
4 184 78 185 79
4 79 184 186 187
4 186 184 188 187
4 184 189 190 191
4 184 78 79 186
4 78 189 184 191
4 189 184 190 188
4 184 78 191 192
4 184 78 192 185
4 192 78 80 185
4 193 80 194 185
4 195 81 196 194
4 81 79 196 194
4 197 187 196 198
4 187 79 185 196
4 79 184 187 185
4 197 199 187 198
4 199 197 187 200
4 199 200 187 186
4 78 201 79 186
4 189 201 87 78
4 202 201 79 74
4 201 74 92 87
4 201 202 92 74
4 201 202 79 186
4 202 203 74 79
4 202 198 203 79
4 204 202 199 203
4 202 203 205 74
4 202 204 205 203
4 182 203 74 205
4 74 203 183 79
4 79 203 183 198
4 79 81 198 183
4 81 79 198 196
4 187 79 196 198
4 202 198 79 186
4 202 204 94 205
4 94 95 205 206
4 207 208 209 210
4 208 207 211 210
4 104 103 211 65
4 104 60 212 213
4 214 215 216 217
4 218 219 220 221
4 222 174 220 221
4 46 39 222 174
4 52 46 40 48
4 40 49 52 48
4 53 49 52 113
4 40 49 155 113
4 155 45 47 40
4 157 47 223 155
4 49 223 224 48
4 52 50 51 54
4 175 54 57 178
4 218 175 54 57
4 225 219 54 57
4 218 175 57 177
4 57 217 219 218
4 219 225 226 57
4 225 227 226 57
4 59 110 57 227
4 59 60 61 228
4 61 60 213 228
4 64 61 213 228
4 63 61 213 64
4 61 104 211 65
4 180 60 104 62
4 58 229 62 180
4 58 60 180 62
4 60 61 104 62
4 60 226 230 212
4 226 60 213 212
4 60 104 212 230
4 179 60 230 104
4 104 211 231 62
4 180 229 62 232
4 180 232 62 231
4 179 60 104 180
4 233 181 105 179
4 181 105 179 230
4 105 214 106 230
4 105 214 230 177
4 215 214 218 217
4 215 217 218 219
4 218 215 219 221
4 218 175 174 54
4 39 52 220 174
4 39 46 52 174
4 115 52 112 35
4 28 115 117 161
4 162 118 116 161
4 24 162 118 163
4 20 19 234 163
4 25 133 163 119
4 120 119 158 235
4 236 119 235 159
4 235 119 158 159
4 119 235 133 136
4 138 235 236 164
4 45 47 42 159
4 46 38 40 42
4 49 50 52 48
4 237 175 176 178
4 181 233 177 176
4 180 179 231 104
4 207 103 65 211
4 207 103 68 65
4 65 66 103 68
4 103 66 97 93
4 66 103 97 63
4 213 104 63 238
4 238 97 103 63
4 104 102 103 238
4 104 106 212 230
4 214 212 106 230
4 214 212 216 106
4 214 212 217 216
4 214 212 230 217
4 226 217 230 212
4 226 60 230 57
4 181 60 57 230
4 179 105 104 230
4 179 105 101 104
4 104 239 103 101
4 239 101 240 100
4 91 241 240 100
4 241 239 240 100
4 239 241 103 100
4 103 210 93 241
4 103 207 93 210
4 210 103 231 239
4 103 239 104 231
4 103 104 63 65
4 65 66 63 103
4 65 66 68 69
4 68 72 66 93
4 96 98 242 97
4 85 96 99 243
4 85 86 99 74
4 86 89 99 74
4 88 86 244 92
4 74 86 92 87
4 201 244 87 92
4 244 86 87 92
4 90 74 92 94
4 94 95 206 245
4 95 209 206 245
4 245 207 95 209
4 208 232 231 211
4 180 104 231 62
4 181 60 107 57
4 54 175 51 178
4 50 52 174 54
4 246 36 52 247
4 246 36 37 35
4 52 31 36 35
4 31 39 52 36
4 39 46 222 41
4 39 222 174 220
4 174 218 220 221
4 218 219 54 220
4 225 219 220 54
4 56 110 54 57
4 110 56 59 57
4 60 59 226 228
4 60 226 213 228
4 57 217 230 226
4 214 217 230 218
4 218 57 230 177
4 181 105 230 177
4 179 60 181 230
4 58 107 180 60
4 229 107 58 248
4 229 107 180 58
4 60 58 59 62
4 58 107 56 248
4 108 56 109 55
4 108 56 55 248
4 107 56 55 57
4 107 181 57 178
4 57 181 177 178
4 181 176 177 178
4 233 181 177 105
4 249 239 101 240
4 91 89 241 100
4 89 91 241 90
4 210 245 93 241
4 245 241 90 93
4 93 94 90 245
4 74 202 92 94
4 205 204 94 206
4 202 198 199 203
4 202 198 186 199
4 199 197 200 250
4 199 186 187 198
4 200 186 188 187
4 184 189 186 188
4 201 189 87 244
4 189 201 78 186
4 201 78 79 87
4 189 78 184 186
4 186 79 187 198
4 74 201 79 87
4 74 79 84 87
4 79 78 84 87
4 77 78 84 79
4 74 77 84 79
4 74 85 84 76
4 83 243 76 85
4 85 96 243 76
4 73 96 74 76
4 96 93 74 99
4 89 93 99 74
4 93 94 74 90
4 93 94 245 95
4 207 95 68 93
4 95 70 68 93
4 95 70 74 205
4 74 70 182 205
4 94 95 74 205
4 241 89 90 93
4 104 179 231 239
4 181 60 180 107
4 107 57 55 178
4 57 54 55 178
4 53 49 51 52
4 40 49 113 52
4 155 47 223 48
4 45 47 159 156
4 119 156 45 159
4 120 44 119 121
4 16 173 124 154
4 166 167 169 145
4 145 7 147 251
4 9 7 252 149
4 253 254 252 255
4 256 253 255 254
4 6 9 252 255
4 253 257 149 252
4 7 258 259 260
4 260 261 251 170
4 169 260 251 170
4 169 251 167 170
4 166 167 145 171
4 16 22 18 130
4 25 24 20 23
4 24 25 118 28
4 119 156 118 45
4 119 28 45 118
4 119 45 44 158
4 44 38 28 29
4 25 28 26 30
4 25 24 26 28
4 24 20 234 163
4 162 24 234 163
4 163 119 118 25
4 235 135 133 136
4 135 134 140 133
4 145 141 153 144
4 145 260 169 151
4 0 258 4 5
4 259 258 262 263
4 264 259 262 263
4 258 7 262 0
4 260 258 259 261
4 258 261 263 259
4 261 258 263 265
4 261 260 251 259
4 167 251 169 145
4 145 260 251 169
4 166 167 171 168
4 16 171 153 140
4 137 135 136 134
4 138 135 235 136
4 235 138 136 164
4 236 119 156 164
4 157 156 159 47
4 155 47 48 40
4 40 49 48 155
4 46 52 174 48
4 247 225 220 54
4 110 225 57 227
4 60 59 57 226
4 104 61 211 62
4 232 211 62 231
4 103 104 211 231
4 239 210 103 241
4 241 93 103 100
4 68 72 93 70
4 103 207 68 93
4 207 103 211 210
4 210 208 231 211
4 103 210 231 211
4 245 207 210 93
4 245 207 209 210
4 245 207 93 95
4 70 95 74 93
4 70 73 74 182
4 182 203 183 74
4 202 74 205 94
4 93 89 90 74
4 89 241 100 93
4 93 98 103 100
4 101 104 102 103
4 104 101 102 106
4 106 238 104 212
4 266 216 212 106
4 106 238 212 266
4 106 238 102 104
4 267 266 238 102
4 97 102 267 238
4 106 238 266 102
4 97 102 238 103
4 97 102 103 98
4 97 102 98 267
4 97 98 242 267
4 96 98 99 242
4 89 98 99 93
4 239 101 100 103
4 104 179 239 101
4 179 249 239 101
4 105 179 101 249
4 233 105 249 179
4 177 181 57 230
4 175 57 177 178
4 175 237 51 178
4 55 54 51 178
4 112 111 109 53
4 112 53 52 113
4 117 115 113 114
4 116 118 117 161
4 115 116 117 161
4 28 115 161 32
4 29 32 26 34
4 26 30 29 27
4 34 26 29 27
4 29 34 31 32
4 31 115 32 35
4 31 115 28 32
4 246 112 52 35
4 246 247 52 54
4 247 110 225 54
4 59 227 57 226
4 213 104 238 212
4 104 103 63 238
4 97 98 103 93
4 70 73 72 74
4 71 182 268 73
4 182 75 268 73
4 182 75 183 268
4 183 81 268 75
4 182 75 74 183
4 79 81 183 75
4 79 81 80 194
4 78 192 80 82
4 192 193 80 82
4 269 193 192 82
4 193 192 80 185
4 80 79 194 185
4 77 74 75 79
4 85 96 76 74
4 96 243 242 99
4 98 102 103 100
4 104 105 106 230
4 214 218 230 177
4 50 175 51 54
4 49 155 223 48
4 157 156 236 159
4 236 119 159 156
4 235 119 164 136
4 236 119 164 235
4 133 235 120 123
4 120 235 133 119
4 135 123 235 133
4 124 173 123 126
4 173 172 126 154
4 166 171 154 172
4 172 171 154 173
4 171 16 154 173
4 171 166 154 153
4 16 171 154 153
4 124 173 16 133
4 124 173 133 123
4 25 133 119 121
4 19 16 133 21
4 163 19 133 21
4 134 19 133 136
4 133 119 136 163
4 133 19 163 136
4 132 20 18 19
4 20 132 234 19
4 20 19 163 21
4 22 20 21 18
4 16 22 21 18
4 128 129 127 21
4 160 129 21 127
4 160 21 25 127
4 25 20 21 23
4 25 27 23 160
4 25 27 30 26
4 23 22 21 160
4 16 129 21 22
4 128 130 165 270
4 128 130 270 129
4 128 130 16 165
4 16 165 153 154
4 17 16 14 153
4 131 17 18 14
4 17 141 153 15
4 12 10 15 153
4 15 17 14 153
4 153 16 14 130
4 16 129 22 130
4 128 130 129 16
4 16 128 165 154
4 151 166 153 165
4 260 145 7 151
4 9 6 252 7
4 7 262 252 149
4 260 259 7 251
4 7 259 147 251
4 264 259 271 149
4 259 7 147 149
4 146 148 147 149
4 271 259 147 149
4 148 271 147 149
4 146 142 143 141
4 144 141 140 139
4 141 134 140 139
4 143 141 144 139
4 142 145 141 146
4 145 142 141 144
4 148 142 143 146
4 145 7 10 146
4 145 150 151 153
4 151 272 150 7
4 151 272 273 150
4 151 272 4 273
4 4 272 2 273
4 151 272 7 4
4 4 260 7 151
4 166 145 151 153
4 166 145 169 151
4 171 166 153 145
4 133 16 140 173
4 124 16 21 133
4 25 21 160 23
4 21 129 160 22
4 121 21 124 127
4 121 120 133 119
4 123 121 125 120
4 123 121 120 133
4 25 133 121 21
4 25 20 163 21
4 118 24 28 161
4 26 28 161 32
4 40 115 28 31
4 115 52 113 112
4 246 112 109 52
4 246 52 109 54
4 56 54 109 55
4 56 107 55 248
4 58 60 59 57
4 63 61 65 104
4 68 72 70 67
4 182 75 73 74
4 77 79 75 80
4 196 79 185 194
4 79 78 185 80
4 77 78 82 84
4 83 77 82 84
4 77 74 84 76
4 96 74 93 72
4 103 66 93 68
4 65 66 69 63
4 63 61 104 213
4 61 60 104 213
4 59 227 226 228
4 274 110 227 225
4 246 36 247 37
4 246 36 35 52
4 52 115 40 31
4 28 31 38 40
4 44 42 158 45
4 120 44 122 158
4 135 133 140 173
4 171 16 173 140
4 171 144 153 140
4 141 144 140 153
4 10 141 15 153
4 10 12 15 13
4 10 8 12 13
4 8 10 12 11
4 8 9 11 255
4 9 253 149 252
4 257 262 149 252
4 262 259 149 7
4 258 7 4 260
4 259 258 7 262
4 262 0 7 252
4 0 6 7 252
4 254 6 252 255
4 0 3 6 252
4 6 3 254 252
4 272 6 11 7
4 4 6 272 7
4 4 6 2 272
4 9 6 11 255
4 9 253 252 255
4 262 264 257 149
4 257 264 275 271
4 259 264 262 149
4 257 264 271 149
4 9 146 7 149
4 10 7 11 9
4 7 12 10 11
4 145 150 153 12
4 12 145 10 153
4 145 146 10 141
4 145 142 147 146
4 171 145 153 144
4 171 142 145 144
4 142 171 145 167
4 142 145 147 167
4 167 145 147 251
4 145 260 7 251
4 145 150 12 7
4 12 145 7 10
4 12 152 153 14
4 152 153 14 130
4 152 151 153 165
4 165 152 276 270
4 152 151 165 276
4 165 152 270 130
4 152 151 276 150
4 276 150 151 273
4 272 7 11 150
4 7 12 11 150
4 153 150 152 12
4 165 16 153 130
4 165 152 130 153
4 15 12 153 14
4 13 131 14 15
4 17 131 15 14
4 17 132 18 19
4 25 24 163 20
4 25 24 118 163
4 119 156 164 118
4 118 117 45 156
4 155 45 117 156
4 113 40 117 155
4 50 49 224 48
4 49 50 224 51
4 50 237 224 51
4 237 50 175 51
4 52 54 220 174
4 52 247 220 54
4 39 247 220 52
4 39 247 52 36
4 115 52 35 31
4 40 115 52 113
4 40 115 113 117
4 115 112 113 114
4 53 52 51 54
4 54 53 109 55
4 52 53 109 54
4 110 246 109 54
4 247 110 54 246
4 247 110 274 225
4 246 274 37 247
4 247 110 246 274
4 110 225 54 57
4 57 217 226 219
4 57 217 218 230
4 219 218 54 57
4 218 54 174 220
4 46 39 52 40
4 39 31 52 40
4 38 42 45 40
4 28 38 44 45
4 121 25 44 119
4 123 135 173 133
4 134 153 140 16
4 134 16 140 133
4 137 135 134 140
4 134 153 141 140
4 134 153 16 17
4 16 17 19 134
4 134 153 17 141
4 153 145 10 141
4 6 9 11 7
4 258 7 0 4
4 1 0 2 5

CELL_TYPES 734
10
10
10
10
10
10
10
10
10
10
10
10
10
10
10
10
10
10
10
10
10
10
10
10
10
10
10
10
10
10
10
10
10
10
10
10
10
10
10
10
10
10
10
10
10
10
10
10
10
10
10
10
10
10
10
10
10
10
10
10
10
10
10
10
10
10
10
10
10
10
10
10
10
10
10
10
10
10
10
10
10
10
10
10
10
10
10
10
10
10
10
10
10
10
10
10
10
10
10
10
10
10
10
10
10
10
10
10
10
10
10
10
10
10
10
10
10
10
10
10
10
10
10
10
10
10
10
10
10
10
10
10
10
10
10
10
10
10
10
10
10
10
10
10
10
10
10
10
10
10
10
10
10
10
10
10
10
10
10
10
10
10
10
10
10
10
10
10
10
10
10
10
10
10
10
10
10
10
10
10
10
10
10
10
10
10
10
10
10
10
10
10
10
10
10
10
10
10
10
10
10
10
10
10
10
10
10
10
10
10
10
10
10
10
10
10
10
10
10
10
10
10
10
10
10
10
10
10
10
10
10
10
10
10
10
10
10
10
10
10
10
10
10
10
10
10
10
10
10
10
10
10
10
10
10
10
10
10
10
10
10
10
10
10
10
10
10
10
10
10
10
10
10
10
10
10
10
10
10
10
10
10
10
10
10
10
10
10
10
10
10
10
10
10
10
10
10
10
10
10
10
10
10
10
10
10
10
10
10
10
10
10
10
10
10
10
10
10
10
10
10
10
10
10
10
10
10
10
10
10
10
10
10
10
10
10
10
10
10
10
10
10
10
10
10
10
10
10
10
10
10
10
10
10
10
10
10
10
10
10
10
10
10
10
10
10
10
10
10
10
10
10
10
10
10
10
10
10
10
10
10
10
10
10
10
10
10
10
10
10
10
10
10
10
10
10
10
10
10
10
10
10
10
10
10
10
10
10
10
10
10
10
10
10
10
10
10
10
10
10
10
10
10
10
10
10
10
10
10
10
10
10
10
10
10
10
10
10
10
10
10
10
10
10
10
10
10
10
10
10
10
10
10
10
10
10
10
10
10
10
10
10
10
10
10
10
10
10
10
10
10
10
10
10
10
10
10
10
10
10
10
10
10
10
10
10
10
10
10
10
10
10
10
10
10
10
10
10
10
10
10
10
10
10
10
10
10
10
10
10
10
10
10
10
10
10
10
10
10
10
10
10
10
10
10
10
10
10
10
10
10
10
10
10
10
10
10
10
10
10
10
10
10
10
10
10
10
10
10
10
10
10
10
10
10
10
10
10
10
10
10
10
10
10
10
10
10
10
10
10
10
10
10
10
10
10
10
10
10
10
10
10
10
10
10
10
10
10
10
10
10
10
10
10
10
10
10
10
10
10
10
10
10
10
10
10
10
10
10
10
10
10
10
10
10
10
10
10
10
10
10
10
10
10
10
10
10
10
10
10
10
10
10
10
10
10
10
10
10
10
10
10
10
10
10
10
10
10
10
10
10
10
10
10
10
10
10
10
10
10
10
10
10
10
10
10
10
10
10
10
10
10
10
10
10
10
10
10
10
10
10
10
10
10
10
10
10
10
10
10
10
10
10
10
10
10
10
10
10
10
10
10
10
10
10
10
10
10
10
10
10
10
10
10
10
10
10
10
10
10
10
10
10
10
10
10
10
10
10
10
10
10
10
10

CELL_DATA 734
SCALARS potentialEnergy FLOAT 1
LOOKUP_TABLE default
56.273476
47.668907
37.716560
125.732353
89.700928
55.269913
105.873497
139.262177
28.065453
65.586437
35.330318
32.290108
43.432426
60.980045
69.419243
211.346100
72.260525
199.501144
56.065834
68.046944
74.976212
43.216656
51.278858
118.093864
103.516289
283.470215
154.850525
64.408569
165.738022
79.757996
39.400042
58.937962
264.473022
258.159225
146.162247
69.875706
273.436523
111.978958
191.330139
303.687439
111.378357
345.935089
43.987690
217.522415
356.505280
310.717255
255.440796
144.524719
66.491581
73.129696
75.606316
99.752525
146.976196
290.689362
166.193329
95.672569
179.732437
182.759415
79.642899
132.511093
83.337074
100.717529
234.587296
212.931854
66.461666
146.108368
29.232765
97.552681
55.601936
73.742561
107.840744
89.087051
90.904121
106.955833
23.059092
118.248161
64.482601
99.784660
37.915854
97.851715
149.618149
102.550331
276.519226
84.535774
62.619656
85.792267
76.313293
157.950119
34.258694
122.155167
47.778610
101.501740
57.117302
82.501503
45.380295
32.343655
26.206463
37.185936
42.033985
47.692501
48.903618
35.260098
127.699959
32.969759
37.292850
119.513313
66.275906
93.055206
70.463348
68.877819
34.446825
97.963760
93.683304
124.588158
123.642113
77.208824
64.439613
104.845375
35.175491
28.405155
82.536911
67.586075
48.575649
72.949459
122.034500
163.724365
36.327496
105.393311
59.006573
38.229465
55.993477
93.817604
225.241547
102.909195
90.648911
19.864137
44.852791
111.816429
206.120834
82.615295
32.699121
36.145247
81.683250
85.637169
182.519562
211.753647
145.384293
89.947212
173.010544
79.023277
193.882767
130.888229
191.625336
86.050072
50.568935
79.069878
41.069242
51.516167
130.174660
118.414581
95.818741
119.537392
120.137207
83.995804
214.948715
119.049171
212.302856
298.245850
130.927223
155.486496
193.867523
93.573212
92.369179
133.083771
113.356873
80.259102
104.082512
83.939117
59.705097
56.308140
71.048870
53.201233
39.998516
53.334179
163.228226
106.807404
49.769753
140.932571
206.678879
31.195971
44.236671
114.944962
106.826736
280.651550
136.958817
165.012634
143.394958
179.213028
57.881836
56.828701
91.581314
256.464188
98.730164
66.284359
96.417419
50.753727
63.479107
36.238495
211.392365
104.794067
63.724941
53.864159
38.759304
63.255219
68.215069
85.898804
66.428654
56.851295
51.359562
98.564514
54.710724
110.438789
49.700542
47.286572
58.829025
69.325081
147.079514
222.350403
141.481201
140.972656
90.201195
29.248844
55.017967
16.209808
41.631245
60.644764
121.038742
52.117237
90.709724
37.157221
43.893623
130.930367
46.245892
163.732971
32.678492
58.817112
116.668221
97.178596
123.551933
103.838120
40.871363
168.341522
159.651321
160.448898
129.806717
263.070099
82.279167
47.992161
25.279788
27.314758
41.706711
72.668678
90.696785
536.404907
218.700989
93.254448
19.696335
123.806046
171.488510
73.325939
104.240028
168.292480
36.968189
80.718536
118.692734
112.078728
64.565388
41.956572
110.925621
258.688904
175.737152
97.711121
184.365097
92.560730
59.150478
230.531967
114.419380
193.373566
80.655487
95.510925
34.551517
69.912418
355.799713
166.398605
257.256317
122.520065
137.701012
110.434547
111.786774
71.336693
120.485474
211.150635
79.561562
142.396896
56.294621
45.360783
87.724724
35.815456
59.903721
171.420441
133.583778
159.835434
91.182747
46.880527
89.229370
57.394413
47.863880
110.544388
64.509640
103.704765
202.311218
254.804901
177.517212
60.722343
315.793976
132.314934
31.150707
47.527393
47.777943
157.258957
113.719498
360.529572
231.172440
166.219681
110.184944
99.036049
69.282471
58.296059
122.896103
95.703789
150.621323
88.297691
127.459221
152.616714
96.519020
110.760590
106.597641
125.213501
308.522125
136.502480
97.366753
200.809357
264.666565
192.206940
99.203392
130.479439
146.135117
63.528820
87.368095
78.311317
236.567627
104.831291
46.141220
75.412842
238.202240
147.444611
102.775070
117.034332
134.292198
64.287930
34.431353
50.988579
54.224457
116.485924
21.629395
80.674904
37.497135
33.150585
51.245274
55.819122
125.229980
108.293846
53.198345
68.876072
252.514969
50.963810
83.649811
47.379356
44.656433
73.871490
24.066730
94.573067
24.536190
135.342804
119.073235
84.475349
46.654922
187.701172
237.471649
218.506607
63.827835
38.793062
123.932648
88.457870
94.374794
49.682407
35.055269
39.439684
38.992447
179.070053
62.669739
168.855896
53.720600
106.145729
168.313782
208.268097
82.666847
22.291921
150.038025
49.840736
96.380989
62.912910
112.505623
33.796133
58.430294
39.639286
96.026901
171.568130
140.984879
280.000153
184.570953
206.132202
70.547012
161.462463
67.601799
97.205200
102.923584
390.783783
121.131836
120.010284
197.491440
87.262390
134.991348
106.051971
103.427147
126.164139
213.828247
65.684143
81.143173
166.232239
134.716972
62.726933
105.033081
126.510399
114.946434
90.234810
155.027206
66.845856
136.005035
342.395508
55.851322
233.586853
111.174210
98.102470
423.695312
231.955200
126.296448
265.184296
118.456146
128.469749
68.954788
20.324228
88.834671
70.537186
52.762924
29.056419
106.919304
75.169762
118.451538
74.100700
219.521545
195.961334
141.383545
24.061667
165.982285
81.346359
198.732849
89.031219
98.266998
109.537712
83.879028
88.498466
159.555573
68.217262
109.590034
314.677429
89.248718
44.010391
47.794117
85.843056
145.624405
248.905838
166.498947
94.722519
135.233505
60.822323
243.847137
226.989212
16.432003
85.514946
30.115543
39.782907
176.055496
23.468965
58.786560
28.885859
41.999121
67.430840
50.883144
117.633209
44.766426
30.550137
68.043701
103.526306
198.400925
53.207546
75.359261
108.664330
18.201352
194.835434
19.895050
56.882343
70.602329
60.464645
49.176670
100.781906
50.995907
112.369225
95.457695
18.309526
13.066862
55.798203
29.446468
53.172333
42.921822
55.798199
30.316885
184.850906
78.136887
85.794121
123.567169
222.799011
338.458496
114.562378
209.419449
21.229365
112.554665
22.523407
171.649765
68.448627
30.381800
130.383965
100.100212
191.112274
115.001831
49.483452
119.903046
47.320034
29.854589
30.596014
37.958710
96.851944
97.308563
44.506268
68.394508
46.061741
78.163658
43.184956
23.546486
23.061316
32.327108
58.882706
98.196114
63.144749
117.227684
104.775650
34.192430
49.967728
56.233219
45.132511
140.736908
29.927553
160.596481
59.879257
98.982437
130.213768
93.749809
127.884621
205.596252
196.630157
131.719063
158.689377
61.186928
169.299835
107.207809
25.978247
272.492249
80.677032
169.774109
163.816406
115.655960
135.895691
242.870453
133.189079
97.296204
25.623984
129.725273
99.735817
56.503159
32.807415
128.881332
240.477890
113.328033
124.815590
33.719923
28.187128
106.819939
114.420952
29.718321
101.573181
80.785828
49.142246
137.331268
77.533592
29.084202
118.865677
70.639858
119.217384
149.899841
75.672417
71.285889
74.758408
36.841970
40.278372
39.185516
74.004913
118.885971
48.887333
48.597359
68.584076
71.840569
56.926319
76.256310
85.181297
36.832357
64.561241
97.069466
99.386444
44.416904
61.331139
84.602036
95.175964
121.782623
141.053909
96.012581
121.668640
40.053089
48.001736
76.567909
185.096054
69.069180
59.807148
44.323917
36.566837
47.404949
63.498520
92.533958
26.052483
64.654045
115.000687
33.671482
52.925552
220.992111
133.963905
102.363388
32.279148
69.671768
87.337975
42.282093
47.841965
46.282574
86.067848
57.295387
125.878807
70.669140
101.919525
214.790909
118.712578
166.928070
164.160446
200.742737
89.323082
49.186562
68.685337
168.291824
178.919220
121.362984
124.436653
184.631210
72.906525
244.797928
82.587944
232.233017
68.283924
44.971046
167.737045
264.975677
60.941738
54.606319
60.560577
96.335106
72.609310
47.463627
76.977791
196.273972
184.012421
96.271423
80.936172
54.399612
84.055412
34.945288
41.964855
90.849960
46.353504

