# vtk DataFile Version 3.1
Tetrahedral Mesh Visualization
ASCII
DATASET UNSTRUCTURED_GRID

POINTS 277 FLOAT
0.000000 1.378113 1.754166
0.000000 0.000000 0.000000
2.000067 0.006425 -0.013414
0.000000 1.666667 0.000000
2.422145 0.016167 1.715298
0.000000 0.000000 1.666667
1.694415 2.472959 -0.015422
2.999589 2.474275 2.298346
3.998202 5.025721 -0.022859
3.075773 5.017295 1.621209
5.212439 5.049273 1.586064
3.493630 3.197412 -0.025328
5.413814 3.355816 -0.027879
6.006779 5.059264 -0.016185
7.380636 3.399100 -0.028665
6.976981 5.059306 1.301105
9.258949 2.249232 2.009894
8.704415 5.069624 1.591671
9.373512 3.403086 -0.010188
10.675744 5.070319 1.669850
11.375279 3.399572 0.030634
11.126267 1.934222 1.577470
10.704433 1.735600 0.012730
12.708110 1.728423 0.063014
13.366556 3.395659 0.080343
12.988182 1.934414 1.567487
14.692968 1.717787 0.099766
14.022397 0.048237 0.087035
15.479462 2.180477 1.801959
15.335370 0.036832 1.756495
13.341659 0.051280 1.741033
17.294462 0.038793 1.712033
16.687731 1.715739 0.110067
18.013067 0.053943 0.104830
16.013908 0.044968 0.100399
18.691622 1.719630 0.124095
19.008787 0.045072 1.434569
20.016918 0.054542 0.121471
16.724165 0.025828 3.403020
18.990637 0.025730 3.222241
17.704712 2.714780 3.077144
17.969797 0.002278 5.106000
16.656942 1.672384 5.114494
15.971075 0.009345 5.096574
14.671185 0.030109 3.422588
15.768578 2.913023 3.472343
18.704781 1.701700 5.127431
17.287895 3.343939 5.137033
19.253914 3.395713 5.155147
19.317528 5.024014 3.499056
20.958561 3.688900 5.176720
21.314108 5.028636 3.529737
19.629601 2.531651 2.494886
20.667725 5.050062 1.849768
21.913315 2.555167 2.646875
22.667166 5.054071 1.884713
23.306522 3.458024 0.205714
23.969027 2.493703 2.504872
25.012136 3.752008 0.234052
25.012451 1.961713 0.206566
25.981894 2.547323 1.962065
27.263657 1.770817 0.224914
26.719009 3.468775 0.249823
29.266094 0.041516 1.834181
28.004818 0.069043 0.213822
29.309427 1.740685 0.237620
30.986004 0.051821 1.543957
32.007591 0.070535 0.228700
31.312326 1.738811 0.243509
30.006371 0.071810 0.224278
33.278122 1.722572 0.248841
34.008492 0.071221 0.232256
32.678715 0.049039 1.841708
34.597469 0.053643 1.913263
34.994602 2.455022 2.784531
36.510593 0.040829 2.047887
35.136501 0.038187 3.608824
36.826744 0.028133 3.771311
38.282928 2.533796 5.245973
37.692337 2.198103 2.430368
38.304562 0.027858 2.767245
38.018501 0.064497 0.237673
37.988453 0.017341 5.230394
35.989197 0.022395 5.224584
36.548508 1.767957 5.240355
34.921349 1.355078 5.233719
34.835747 3.151555 5.255416
36.748402 3.501405 5.258990
33.988129 5.012140 5.278319
32.673969 3.314031 5.262948
33.263042 5.027988 3.629014
31.980825 5.006961 5.280926
35.152420 5.034100 3.670835
32.203148 2.642454 2.680006
34.593449 5.052520 1.972772
32.640915 3.398280 0.257096
33.203709 0.039147 3.539398
30.976290 0.032137 3.335267
31.299332 1.667010 5.239625
33.234741 1.623277 5.240991
30.642281 3.331516 5.251646
28.636358 3.326489 5.248651
29.307753 1.660307 5.229779
30.013741 2.529369 2.719298
27.953659 2.517329 2.722637
26.625387 3.330675 5.245269
27.300581 1.666647 5.227036
24.661011 5.053992 1.911135
22.020405 5.062123 0.204892
21.351929 3.402200 0.174969
22.755306 1.762691 0.176629
20.024246 5.059675 0.172229
19.358953 3.389464 0.140976
18.670742 5.037575 1.820620
18.025345 5.049891 0.150354
17.358206 3.379133 0.128490
16.033855 5.045173 0.129134
16.671894 5.035042 1.805527
14.674412 5.042778 1.775481
13.688207 2.999027 3.361046
12.961562 1.365923 5.065218
12.654751 0.049444 3.388555
13.957006 0.035119 5.080412
11.244775 1.673499 5.023627
10.650563 0.061532 3.338980
11.955248 0.050647 5.037621
9.964718 0.066886 4.996996
11.337678 0.065946 1.688348
9.319594 0.074874 1.647360
10.025468 0.074639 -0.005559
8.703806 1.738614 -0.024973
8.019257 5.071623 -0.018366
10.035201 5.065418 0.000542
11.211337 2.706013 3.307646
9.255876 5.079500 3.284861
10.711866 3.377715 5.018284
11.307885 5.060693 3.359346
9.978024 5.079698 4.998695
11.973088 5.055866 5.047085
7.987337 5.078606 4.973177
8.723555 3.470617 4.972575
6.962577 5.066360 3.090205
5.347181 3.425310 4.974301
5.980044 5.067532 4.971576
7.017949 3.754371 4.978364
5.143107 2.423479 3.105271
4.616409 5.041920 3.267598
3.481961 3.220309 4.976115
3.985700 5.039333 4.979156
2.368414 5.016501 3.260242
4.846196 1.653710 -0.040377
4.914418 0.055852 1.836285
6.739139 1.722965 -0.034307
7.017374 2.628325 2.160102
8.651772 0.070751 3.311368
17.321606 5.021841 3.478542
15.319698 5.028397 3.454371
15.972334 5.012080 5.127305
14.681949 1.632874 5.100259
15.237793 3.322065 5.114905
12.030075 0.066207 0.041682
15.363632 3.379045 0.113119
14.044677 5.055789 0.094816
12.676827 5.060945 1.736231
13.320716 5.044521 3.418412
7.250378 0.068510 1.656754
6.671878 0.062524 3.342712
4.910952 1.697200 4.970216
6.001236 0.053834 4.965243
4.919037 0.051953 3.625633
4.011467 0.035623 4.966160
7.035001 1.961880 4.964097
7.986418 0.076256 4.971847
9.254750 1.767992 4.981530
20.963591 1.899090 5.147637
22.667442 3.403009 5.199654
23.967886 5.005720 5.243249
24.625725 3.347670 5.222917
23.313187 5.035290 3.566976
27.309681 5.009659 3.602638
26.656565 5.047911 1.934932
25.311018 5.026557 3.583195
35.166389 1.678653 0.247918
36.845551 1.513991 0.243617
39.991879 3.264339 3.868745
39.997913 1.653328 2.846061
38.305908 5.034412 2.798603
39.999599 3.285769 2.144633
40.007050 5.011315 3.603886
38.004856 5.011270 5.271119
40.010250 4.995853 5.276309
39.997482 3.329901 5.246248
39.993847 1.672379 5.242152
39.996712 0.012455 3.570104
40.009350 0.036561 1.910180
40.014198 0.051485 0.245143
40.016396 1.726868 0.249091
39.998112 3.394568 0.250487
38.313499 2.524841 0.245975
38.000889 5.064796 0.269072
39.997608 5.042398 1.943188
36.836758 5.031056 3.820072
36.515007 5.051660 2.099017
36.521801 3.245889 0.259442
36.006359 5.071795 0.281055
34.603703 3.377236 0.254811
34.003674 5.068755 0.277704
30.658993 3.407838 0.262374
30.000158 5.073966 0.282930
32.003822 5.074977 0.287228
30.646896 5.046508 1.948331
28.666519 3.412642 0.256795
26.704664 0.023951 3.588279
27.261868 0.041943 1.898483
25.279917 1.670604 5.206594
23.957609 0.005116 5.169812
25.967800 0.002994 5.193546
24.972836 0.020707 3.860920
23.223928 1.708059 5.182442
23.251627 0.026794 3.546851
21.247276 0.029761 3.439957
21.959623 0.012933 5.145770
19.965481 0.003399 5.118733
17.974501 5.005526 5.153453
19.966080 5.007320 5.178983
22.733078 0.048533 1.845784
24.995411 0.048975 2.074524
24.016434 0.067093 0.174522
26.010715 0.072343 0.195683
26.010983 5.070755 0.258400
25.684404 2.256818 3.713009
28.650455 5.042592 1.942678
28.007076 5.078211 0.273245
25.969952 5.000730 5.253436
12.043259 5.066829 0.055884
12.966275 3.155622 5.070576
13.970819 5.035618 5.099973
21.962135 5.004281 5.212758
28.718510 0.013022 3.529103
29.309231 5.016499 3.606541
29.977064 4.998470 5.273949
31.299318 5.023729 3.616272
31.991392 0.013715 5.221663
33.992611 0.018037 5.224593
35.992245 5.016911 5.276452
32.634068 5.047603 1.953768
20.704771 1.729158 0.141389
20.728939 0.048465 1.738311
24.014795 5.068214 0.232971
27.976612 4.988941 5.268975
40.002262 5.057321 0.273491
3.186628 1.493162 4.976260
0.000000 3.103853 1.750106
0.000000 5.000000 1.666667
0.000000 3.333333 0.000000
1.998721 5.005235 -0.016321
0.000000 5.000000 0.000000
0.000000 5.000000 3.333333
0.000000 0.000000 3.333333
1.698792 2.481833 4.984068
3.045172 0.027048 3.363588
2.005954 0.020526 4.983078
0.000000 2.403264 3.370902
0.000000 1.666667 5.000000
0.000000 3.333333 5.000000
0.000000 0.000000 5.000000
27.975756 -0.000173 5.211804
29.989933 0.001676 5.215593
36.007439 0.060283 0.237363
39.979439 0.009461 5.244743
8.016794 0.071729 -0.029710
1.998139 5.013473 4.986333
3.163156 1.471573 -0.025893
4.010051 0.031573 -0.028148
22.020479 0.065653 0.139367
0.000000 5.000000 5.000000
6.015820 0.067078 -0.037219

CELLS 734 3670
4 0 1 2 3
4 0 4 2 5
4 0 3 2 6
4 4 6 0 2
4 4 6 7 0
4 8 9 10 11
4 12 13 14 15
4 16 17 14 18
4 19 20 18 21
4 20 22 21 23
4 24 25 26 23
4 25 27 26 23
4 26 28 29 30
4 28 29 31 32
4 33 34 32 31
4 31 33 35 32
4 31 33 36 35
4 33 37 36 35
4 38 39 40 31
4 41 42 43 38
4 44 42 45 38
4 44 42 38 43
4 46 38 42 41
4 46 47 40 48
4 49 50 51 52
4 53 54 51 55
4 56 54 55 57
4 56 58 59 57
4 60 59 61 62
4 63 61 64 65
4 66 67 68 69
4 67 70 71 72
4 73 74 75 76
4 74 77 75 76
4 77 78 79 80
4 79 81 75 80
4 77 78 80 82
4 77 83 76 84
4 83 85 76 84
4 85 86 74 84
4 74 86 87 84
4 88 89 86 90
4 91 89 88 90
4 86 88 90 92
4 90 86 92 74
4 86 89 74 90
4 93 94 95 74
4 70 74 72 93
4 70 73 71 72
4 74 96 73 72
4 66 97 93 72
4 96 97 72 93
4 96 98 97 93
4 85 96 74 99
4 96 98 93 99
4 98 89 100 93
4 101 102 100 103
4 104 105 101 106
4 107 58 57 60
4 58 107 57 56
4 53 108 109 55
4 56 110 109 54
4 53 111 109 108
4 112 53 109 52
4 111 112 113 53
4 112 111 113 114
4 115 116 114 117
4 40 28 115 117
4 45 117 118 28
4 119 28 25 44
4 120 44 121 122
4 123 121 124 125
4 125 123 126 124
4 127 128 21 124
4 16 129 128 21
4 16 18 14 130
4 16 17 18 19
4 131 17 132 18
4 16 19 18 21
4 133 16 19 134
4 135 134 133 136
4 135 137 136 138
4 137 134 139 140
4 141 142 143 144
4 145 146 147 7
4 142 148 147 146
4 7 146 147 149
4 10 7 9 146
4 145 150 7 151
4 152 151 150 153
4 16 128 154 124
4 124 21 121 133
4 25 28 30 44
4 28 38 45 40
4 45 47 40 42
4 155 45 156 47
4 157 156 47 155
4 155 45 40 117
4 45 42 158 159
4 44 42 43 158
4 119 45 158 159
4 120 44 158 119
4 25 127 21 121
4 25 27 160 30
4 127 25 160 30
4 25 127 121 30
4 44 25 121 30
4 28 30 44 29
4 119 28 44 45
4 119 28 118 25
4 28 24 26 161
4 26 32 29 28
4 28 31 29 38
4 46 38 41 39
4 46 38 39 40
4 28 117 40 45
4 118 28 117 161
4 162 24 118 161
4 118 119 163 164
4 136 119 164 163
4 25 133 21 163
4 128 16 21 124
4 165 166 153 154
4 166 167 168 169
4 167 168 169 170
4 171 168 172 166
4 124 173 126 154
4 123 121 133 124
4 120 125 122 121
4 122 158 44 43
4 47 46 40 42
4 52 50 174 48
4 175 50 174 54
4 176 175 177 178
4 179 60 180 181
4 64 69 63 65
4 68 72 67 66
4 70 73 182 71
4 74 79 183 75
4 184 78 185 79
4 79 184 186 187
4 186 184 188 187
4 184 189 190 191
4 184 78 79 186
4 78 189 184 191
4 189 184 190 188
4 184 78 191 192
4 184 78 192 185
4 192 78 80 185
4 193 80 194 185
4 195 81 196 194
4 81 79 196 194
4 197 187 196 198
4 187 79 185 196
4 79 184 187 185
4 197 199 187 198
4 199 197 187 200
4 199 200 187 186
4 78 201 79 186
4 189 201 87 78
4 202 201 79 74
4 201 74 92 87
4 201 202 92 74
4 201 202 79 186
4 202 203 74 79
4 202 198 203 79
4 204 202 199 203
4 202 203 205 74
4 202 204 205 203
4 182 203 74 205
4 74 203 183 79
4 79 203 183 198
4 79 81 198 183
4 81 79 198 196
4 187 79 196 198
4 202 198 79 186
4 202 204 94 205
4 94 95 205 206
4 207 208 209 210
4 208 207 211 210
4 104 103 211 65
4 104 60 212 213
4 214 215 216 217
4 218 219 220 221
4 222 174 220 221
4 46 39 222 174
4 52 46 40 48
4 40 49 52 48
4 53 49 52 113
4 40 49 155 113
4 155 45 47 40
4 157 47 223 155
4 49 223 224 48
4 52 50 51 54
4 175 54 57 178
4 218 175 54 57
4 225 219 54 57
4 218 175 57 177
4 57 217 219 218
4 219 225 226 57
4 225 227 226 57
4 59 110 57 227
4 59 60 61 228
4 61 60 213 228
4 64 61 213 228
4 63 61 213 64
4 61 104 211 65
4 180 60 104 62
4 58 229 62 180
4 58 60 180 62
4 60 61 104 62
4 60 226 230 212
4 226 60 213 212
4 60 104 212 230
4 179 60 230 104
4 104 211 231 62
4 180 229 62 232
4 180 232 62 231
4 179 60 104 180
4 233 181 105 179
4 181 105 179 230
4 105 214 106 230
4 105 214 230 177
4 215 214 218 217
4 215 217 218 219
4 218 215 219 221
4 218 175 174 54
4 39 52 220 174
4 39 46 52 174
4 115 52 112 35
4 28 115 117 161
4 162 118 116 161
4 24 162 118 163
4 20 19 234 163
4 25 133 163 119
4 120 119 158 235
4 236 119 235 159
4 235 119 158 159
4 119 235 133 136
4 138 235 236 164
4 45 47 42 159
4 46 38 40 42
4 49 50 52 48
4 237 175 176 178
4 181 233 177 176
4 180 179 231 104
4 207 103 65 211
4 207 103 68 65
4 65 66 103 68
4 103 66 97 93
4 66 103 97 63
4 213 104 63 238
4 238 97 103 63
4 104 102 103 238
4 104 106 212 230
4 214 212 106 230
4 214 212 216 106
4 214 212 217 216
4 214 212 230 217
4 226 217 230 212
4 226 60 230 57
4 181 60 57 230
4 179 105 104 230
4 179 105 101 104
4 104 239 103 101
4 239 101 240 100
4 91 241 240 100
4 241 239 240 100
4 239 241 103 100
4 103 210 93 241
4 103 207 93 210
4 210 103 231 239
4 103 239 104 231
4 103 104 63 65
4 65 66 63 103
4 65 66 68 69
4 68 72 66 93
4 96 98 242 97
4 85 96 99 243
4 85 86 99 74
4 86 89 99 74
4 88 86 244 92
4 74 86 92 87
4 201 244 87 92
4 244 86 87 92
4 90 74 92 94
4 94 95 206 245
4 95 209 206 245
4 245 207 95 209
4 208 232 231 211
4 180 104 231 62
4 181 60 107 57
4 54 175 51 178
4 50 52 174 54
4 246 36 52 247
4 246 36 37 35
4 52 31 36 35
4 31 39 52 36
4 39 46 222 41
4 39 222 174 220
4 174 218 220 221
4 218 219 54 220
4 225 219 220 54
4 56 110 54 57
4 110 56 59 57
4 60 59 226 228
4 60 226 213 228
4 57 217 230 226
4 214 217 230 218
4 218 57 230 177
4 181 105 230 177
4 179 60 181 230
4 58 107 180 60
4 229 107 58 248
4 229 107 180 58
4 60 58 59 62
4 58 107 56 248
4 108 56 109 55
4 108 56 55 248
4 107 56 55 57
4 107 181 57 178
4 57 181 177 178
4 181 176 177 178
4 233 181 177 105
4 249 239 101 240
4 91 89 241 100
4 89 91 241 90
4 210 245 93 241
4 245 241 90 93
4 93 94 90 245
4 74 202 92 94
4 205 204 94 206
4 202 198 199 203
4 202 198 186 199
4 199 197 200 250
4 199 186 187 198
4 200 186 188 187
4 184 189 186 188
4 201 189 87 244
4 189 201 78 186
4 201 78 79 87
4 189 78 184 186
4 186 79 187 198
4 74 201 79 87
4 74 79 84 87
4 79 78 84 87
4 77 78 84 79
4 74 77 84 79
4 74 85 84 76
4 83 243 76 85
4 85 96 243 76
4 73 96 74 76
4 96 93 74 99
4 89 93 99 74
4 93 94 74 90
4 93 94 245 95
4 207 95 68 93
4 95 70 68 93
4 95 70 74 205
4 74 70 182 205
4 94 95 74 205
4 241 89 90 93
4 104 179 231 239
4 181 60 180 107
4 107 57 55 178
4 57 54 55 178
4 53 49 51 52
4 40 49 113 52
4 155 47 223 48
4 45 47 159 156
4 119 156 45 159
4 120 44 119 121
4 16 173 124 154
4 166 167 169 145
4 145 7 147 251
4 9 7 252 149
4 253 254 252 255
4 256 253 255 254
4 6 9 252 255
4 253 257 149 252
4 7 258 259 260
4 260 261 251 170
4 169 260 251 170
4 169 251 167 170
4 166 167 145 171
4 16 22 18 130
4 25 24 20 23
4 24 25 118 28
4 119 156 118 45
4 119 28 45 118
4 119 45 44 158
4 44 38 28 29
4 25 28 26 30
4 25 24 26 28
4 24 20 234 163
4 162 24 234 163
4 163 119 118 25
4 235 135 133 136
4 135 134 140 133
4 145 141 153 144
4 145 260 169 151
4 0 258 4 5
4 259 258 262 263
4 264 259 262 263
4 258 7 262 0
4 260 258 259 261
4 258 261 263 259
4 261 258 263 265
4 261 260 251 259
4 167 251 169 145
4 145 260 251 169
4 166 167 171 168
4 16 171 153 140
4 137 135 136 134
4 138 135 235 136
4 235 138 136 164
4 236 119 156 164
4 157 156 159 47
4 155 47 48 40
4 40 49 48 155
4 46 52 174 48
4 247 225 220 54
4 110 225 57 227
4 60 59 57 226
4 104 61 211 62
4 232 211 62 231
4 103 104 211 231
4 239 210 103 241
4 241 93 103 100
4 68 72 93 70
4 103 207 68 93
4 207 103 211 210
4 210 208 231 211
4 103 210 231 211
4 245 207 210 93
4 245 207 209 210
4 245 207 93 95
4 70 95 74 93
4 70 73 74 182
4 182 203 183 74
4 202 74 205 94
4 93 89 90 74
4 89 241 100 93
4 93 98 103 100
4 101 104 102 103
4 104 101 102 106
4 106 238 104 212
4 266 216 212 106
4 106 238 212 266
4 106 238 102 104
4 267 266 238 102
4 97 102 267 238
4 106 238 266 102
4 97 102 238 103
4 97 102 103 98
4 97 102 98 267
4 97 98 242 267
4 96 98 99 242
4 89 98 99 93
4 239 101 100 103
4 104 179 239 101
4 179 249 239 101
4 105 179 101 249
4 233 105 249 179
4 177 181 57 230
4 175 57 177 178
4 175 237 51 178
4 55 54 51 178
4 112 111 109 53
4 112 53 52 113
4 117 115 113 114
4 116 118 117 161
4 115 116 117 161
4 28 115 161 32
4 29 32 26 34
4 26 30 29 27
4 34 26 29 27
4 29 34 31 32
4 31 115 32 35
4 31 115 28 32
4 246 112 52 35
4 246 247 52 54
4 247 110 225 54
4 59 227 57 226
4 213 104 238 212
4 104 103 63 238
4 97 98 103 93
4 70 73 72 74
4 71 182 268 73
4 182 75 268 73
4 182 75 183 268
4 183 81 268 75
4 182 75 74 183
4 79 81 183 75
4 79 81 80 194
4 78 192 80 82
4 192 193 80 82
4 269 193 192 82
4 193 192 80 185
4 80 79 194 185
4 77 74 75 79
4 85 96 76 74
4 96 243 242 99
4 98 102 103 100
4 104 105 106 230
4 214 218 230 177
4 50 175 51 54
4 49 155 223 48
4 157 156 236 159
4 236 119 159 156
4 235 119 164 136
4 236 119 164 235
4 133 235 120 123
4 120 235 133 119
4 135 123 235 133
4 124 173 123 126
4 173 172 126 154
4 166 171 154 172
4 172 171 154 173
4 171 16 154 173
4 171 166 154 153
4 16 171 154 153
4 124 173 16 133
4 124 173 133 123
4 25 133 119 121
4 19 16 133 21
4 163 19 133 21
4 134 19 133 136
4 133 119 136 163
4 133 19 163 136
4 132 20 18 19
4 20 132 234 19
4 20 19 163 21
4 22 20 21 18
4 16 22 21 18
4 128 129 127 21
4 160 129 21 127
4 160 21 25 127
4 25 20 21 23
4 25 27 23 160
4 25 27 30 26
4 23 22 21 160
4 16 129 21 22
4 128 130 165 270
4 128 130 270 129
4 128 130 16 165
4 16 165 153 154
4 17 16 14 153
4 131 17 18 14
4 17 141 153 15
4 12 10 15 153
4 15 17 14 153
4 153 16 14 130
4 16 129 22 130
4 128 130 129 16
4 16 128 165 154
4 151 166 153 165
4 260 145 7 151
4 9 6 252 7
4 7 262 252 149
4 260 259 7 251
4 7 259 147 251
4 264 259 271 149
4 259 7 147 149
4 146 148 147 149
4 271 259 147 149
4 148 271 147 149
4 146 142 143 141
4 144 141 140 139
4 141 134 140 139
4 143 141 144 139
4 142 145 141 146
4 145 142 141 144
4 148 142 143 146
4 145 7 10 146
4 145 150 151 153
4 151 272 150 7
4 151 272 273 150
4 151 272 4 273
4 4 272 2 273
4 151 272 7 4
4 4 260 7 151
4 166 145 151 153
4 166 145 169 151
4 171 166 153 145
4 133 16 140 173
4 124 16 21 133
4 25 21 160 23
4 21 129 160 22
4 121 21 124 127
4 121 120 133 119
4 123 121 125 120
4 123 121 120 133
4 25 133 121 21
4 25 20 163 21
4 118 24 28 161
4 26 28 161 32
4 40 115 28 31
4 115 52 113 112
4 246 112 109 52
4 246 52 109 54
4 56 54 109 55
4 56 107 55 248
4 58 60 59 57
4 63 61 65 104
4 68 72 70 67
4 182 75 73 74
4 77 79 75 80
4 196 79 185 194
4 79 78 185 80
4 77 78 82 84
4 83 77 82 84
4 77 74 84 76
4 96 74 93 72
4 103 66 93 68
4 65 66 69 63
4 63 61 104 213
4 61 60 104 213
4 59 227 226 228
4 274 110 227 225
4 246 36 247 37
4 246 36 35 52
4 52 115 40 31
4 28 31 38 40
4 44 42 158 45
4 120 44 122 158
4 135 133 140 173
4 171 16 173 140
4 171 144 153 140
4 141 144 140 153
4 10 141 15 153
4 10 12 15 13
4 10 8 12 13
4 8 10 12 11
4 8 9 11 255
4 9 253 149 252
4 257 262 149 252
4 262 259 149 7
4 258 7 4 260
4 259 258 7 262
4 262 0 7 252
4 0 6 7 252
4 254 6 252 255
4 0 3 6 252
4 6 3 254 252
4 272 6 11 7
4 4 6 272 7
4 4 6 2 272
4 9 6 11 255
4 9 253 252 255
4 262 264 257 149
4 257 264 275 271
4 259 264 262 149
4 257 264 271 149
4 9 146 7 149
4 10 7 11 9
4 7 12 10 11
4 145 150 153 12
4 12 145 10 153
4 145 146 10 141
4 145 142 147 146
4 171 145 153 144
4 171 142 145 144
4 142 171 145 167
4 142 145 147 167
4 167 145 147 251
4 145 260 7 251
4 145 150 12 7
4 12 145 7 10
4 12 152 153 14
4 152 153 14 130
4 152 151 153 165
4 165 152 276 270
4 152 151 165 276
4 165 152 270 130
4 152 151 276 150
4 276 150 151 273
4 272 7 11 150
4 7 12 11 150
4 153 150 152 12
4 165 16 153 130
4 165 152 130 153
4 15 12 153 14
4 13 131 14 15
4 17 131 15 14
4 17 132 18 19
4 25 24 163 20
4 25 24 118 163
4 119 156 164 118
4 118 117 45 156
4 155 45 117 156
4 113 40 117 155
4 50 49 224 48
4 49 50 224 51
4 50 237 224 51
4 237 50 175 51
4 52 54 220 174
4 52 247 220 54
4 39 247 220 52
4 39 247 52 36
4 115 52 35 31
4 40 115 52 113
4 40 115 113 117
4 115 112 113 114
4 53 52 51 54
4 54 53 109 55
4 52 53 109 54
4 110 246 109 54
4 247 110 54 246
4 247 110 274 225
4 246 274 37 247
4 247 110 246 274
4 110 225 54 57
4 57 217 226 219
4 57 217 218 230
4 219 218 54 57
4 218 54 174 220
4 46 39 52 40
4 39 31 52 40
4 38 42 45 40
4 28 38 44 45
4 121 25 44 119
4 123 135 173 133
4 134 153 140 16
4 134 16 140 133
4 137 135 134 140
4 134 153 141 140
4 134 153 16 17
4 16 17 19 134
4 134 153 17 141
4 153 145 10 141
4 6 9 11 7
4 258 7 0 4
4 1 0 2 5

CELL_TYPES 734
10
10
10
10
10
10
10
10
10
10
10
10
10
10
10
10
10
10
10
10
10
10
10
10
10
10
10
10
10
10
10
10
10
10
10
10
10
10
10
10
10
10
10
10
10
10
10
10
10
10
10
10
10
10
10
10
10
10
10
10
10
10
10
10
10
10
10
10
10
10
10
10
10
10
10
10
10
10
10
10
10
10
10
10
10
10
10
10
10
10
10
10
10
10
10
10
10
10
10
10
10
10
10
10
10
10
10
10
10
10
10
10
10
10
10
10
10
10
10
10
10
10
10
10
10
10
10
10
10
10
10
10
10
10
10
10
10
10
10
10
10
10
10
10
10
10
10
10
10
10
10
10
10
10
10
10
10
10
10
10
10
10
10
10
10
10
10
10
10
10
10
10
10
10
10
10
10
10
10
10
10
10
10
10
10
10
10
10
10
10
10
10
10
10
10
10
10
10
10
10
10
10
10
10
10
10
10
10
10
10
10
10
10
10
10
10
10
10
10
10
10
10
10
10
10
10
10
10
10
10
10
10
10
10
10
10
10
10
10
10
10
10
10
10
10
10
10
10
10
10
10
10
10
10
10
10
10
10
10
10
10
10
10
10
10
10
10
10
10
10
10
10
10
10
10
10
10
10
10
10
10
10
10
10
10
10
10
10
10
10
10
10
10
10
10
10
10
10
10
10
10
10
10
10
10
10
10
10
10
10
10
10
10
10
10
10
10
10
10
10
10
10
10
10
10
10
10
10
10
10
10
10
10
10
10
10
10
10
10
10
10
10
10
10
10
10
10
10
10
10
10
10
10
10
10
10
10
10
10
10
10
10
10
10
10
10
10
10
10
10
10
10
10
10
10
10
10
10
10
10
10
10
10
10
10
10
10
10
10
10
10
10
10
10
10
10
10
10
10
10
10
10
10
10
10
10
10
10
10
10
10
10
10
10
10
10
10
10
10
10
10
10
10
10
10
10
10
10
10
10
10
10
10
10
10
10
10
10
10
10
10
10
10
10
10
10
10
10
10
10
10
10
10
10
10
10
10
10
10
10
10
10
10
10
10
10
10
10
10
10
10
10
10
10
10
10
10
10
10
10
10
10
10
10
10
10
10
10
10
10
10
10
10
10
10
10
10
10
10
10
10
10
10
10
10
10
10
10
10
10
10
10
10
10
10
10
10
10
10
10
10
10
10
10
10
10
10
10
10
10
10
10
10
10
10
10
10
10
10
10
10
10
10
10
10
10
10
10
10
10
10
10
10
10
10
10
10
10
10
10
10
10
10
10
10
10
10
10
10
10
10
10
10
10
10
10
10
10
10
10
10
10
10
10
10
10
10
10
10
10
10
10
10
10
10
10
10
10
10
10
10
10
10
10
10
10
10
10
10
10
10
10
10
10
10
10
10
10
10
10
10
10
10
10
10
10
10
10
10
10
10
10
10
10
10
10
10
10
10
10
10
10
10
10
10
10
10
10
10
10
10
10
10
10
10
10
10
10
10
10
10
10
10
10
10
10
10
10
10
10
10
10
10
10
10
10
10
10
10
10
10
10
10
10
10
10
10
10
10
10
10
10
10
10
10
10
10
10
10
10
10
10
10
10
10
10
10
10
10
10
10
10
10
10
10
10
10
10
10
10
10
10
10
10
10
10
10
10
10
10
10
10
10
10

CELL_DATA 734
SCALARS potentialEnergy FLOAT 1
LOOKUP_TABLE default
40.860149
95.017159
72.706066
140.052460
179.380753
100.333633
100.524635
182.403976
238.735474
182.531784
157.694092
118.988747
81.871262
170.134827
57.969662
36.002356
45.402027
35.071545
40.068527
33.466927
61.444954
43.321404
32.774805
32.544470
154.895203
44.345364
160.132553
82.945274
90.080345
50.199066
60.963165
27.045645
70.767609
107.438164
29.398411
113.847984
156.261932
32.265141
20.649241
30.564323
338.698700
62.561867
57.964321
54.006512
130.076920
175.591507
93.725456
126.962616
38.668791
57.499016
22.165119
63.811554
68.347870
84.803207
54.829678
76.391884
56.547981
126.568153
45.766117
67.523457
148.465820
88.842598
73.980831
154.664352
75.995056
112.961159
77.414772
41.548958
69.583916
106.620300
19.056744
49.554821
61.458340
75.356682
163.086594
140.861984
118.275970
157.775925
229.604156
183.456757
267.431549
130.379501
179.972198
79.549721
332.283417
143.208420
208.901169
203.891144
312.338379
242.013657
178.252304
209.744049
103.359856
45.616547
36.904850
146.478134
33.827738
42.661106
72.330807
84.726364
30.734659
158.198715
152.305893
180.471008
161.786804
167.876877
100.606171
44.150898
84.446884
123.175034
81.499527
147.171463
52.493671
46.418392
73.539486
31.348818
54.315571
30.400757
119.584610
206.024277
248.527985
89.350220
58.248886
48.126732
70.771748
186.145218
96.914993
224.113495
27.997107
197.885056
50.110210
156.237335
41.732117
51.799568
176.686554
54.012287
50.266708
49.269062
149.186478
87.814392
89.394073
103.559395
63.513348
193.308319
65.552891
120.683449
159.908920
122.288460
168.820267
122.299713
217.989410
225.802856
137.399391
245.010605
127.282379
105.789604
48.909260
80.259041
165.301407
51.450027
153.943115
182.701141
119.732635
132.194992
161.500443
107.551437
90.462662
60.459679
56.808964
128.841911
119.452637
91.474472
140.907913
148.210892
154.030090
164.294296
40.858091
32.188231
30.549284
30.278917
96.641624
71.917580
58.634617
54.684498
123.481346
70.622013
64.823914
118.082077
100.346100
38.191505
77.860268
81.232330
46.338192
33.645288
35.942072
54.197338
63.447590
24.809671
68.515484
58.791546
56.573719
94.526001
151.036270
168.597687
75.990105
72.228607
69.589100
144.214859
83.092155
112.099243
150.176224
43.309387
30.495491
51.377502
81.027466
205.266602
94.833450
105.036667
95.832893
110.834068
87.429169
69.112938
53.511494
42.251316
41.179302
26.347214
31.841246
96.832794
103.543007
61.463585
68.837643
124.672890
54.898067
150.444229
393.793427
199.177719
155.023895
143.837738
183.074188
196.786331
74.529007
50.714100
101.668037
95.323494
29.241449
221.743942
78.099823
72.636208
98.073944
67.243626
69.736683
91.495903
145.204041
135.099968
47.490482
137.412094
75.723427
42.711926
58.906914
45.813557
98.154121
45.282539
105.066208
163.264023
133.664207
40.903336
43.054382
40.063765
66.268944
46.704460
61.259586
47.165054
59.278564
93.126427
121.488159
58.083576
100.296288
26.103800
46.555492
68.152954
93.017662
48.184818
112.055962
37.959375
32.934633
98.089790
86.937927
71.920959
39.532310
96.897766
132.801620
128.520432
75.136299
57.298302
123.721840
56.438812
50.308323
44.552387
39.978392
43.300999
83.015823
61.425838
85.295128
147.884155
60.839405
50.337032
77.757759
36.009750
55.069622
25.831769
63.526085
127.275146
86.795158
41.986702
109.602486
33.986013
44.735378
98.206276
78.959930
90.375778
47.370785
68.042576
25.965214
40.741673
46.676392
57.057823
94.327690
62.064075
168.109283
108.366631
63.819565
40.755054
161.422638
160.553406
37.939421
85.288239
99.847328
132.725021
136.421417
109.248772
204.873611
59.100075
63.502132
134.721207
95.513550
136.230682
46.914021
127.225151
36.655188
35.113775
31.477957
96.863274
102.499474
100.405876
95.589211
51.467880
98.233307
80.539650
54.119190
66.598640
74.259377
87.376289
60.525646
122.884644
257.027573
169.473053
42.142029
106.136879
31.012821
58.735485
48.523567
173.322113
223.056046
49.626663
152.265228
174.765045
67.803539
58.666374
146.087692
100.495544
262.555878
97.822723
60.343937
39.849524
256.399124
288.429871
99.738747
131.801979
95.139839
57.790119
65.454700
39.267935
101.030617
149.677368
269.723297
40.504139
178.702423
250.707748
226.872971
206.415710
170.332855
78.417465
94.388130
68.112522
137.528145
184.154739
111.798569
359.839569
68.402882
141.739609
201.002289
144.636444
43.002796
222.788422
113.033447
141.971115
63.448071
98.877197
62.082306
100.478477
63.960068
70.586887
114.672852
52.114754
53.936192
90.477211
108.910194
66.982121
198.621902
42.965469
137.250679
51.952084
27.435936
62.194359
95.750732
45.785046
55.289787
182.797668
82.213951
80.765930
149.036621
189.102783
122.362434
60.051311
78.644981
119.897949
133.165649
68.994198
58.370922
83.402885
115.338837
118.356995
183.899277
192.494644
117.360786
45.203629
79.120399
22.246030
50.925709
72.377213
99.222031
48.554874
65.118633
63.056614
38.222055
73.233135
50.057041
64.448242
75.962616
130.336113
38.897079
22.851783
55.917828
85.416885
66.703640
82.669426
49.559715
105.271729
51.303410
41.370108
108.710442
155.192123
96.378716
124.357002
71.417122
104.986771
88.109505
68.183472
77.953865
87.822617
84.848076
134.031128
93.247002
166.192398
131.908737
121.135773
45.061584
182.616440
69.062836
113.402191
89.129753
87.811470
42.806511
38.383627
220.967545
93.544151
25.817494
31.975811
87.110611
199.992035
126.903580
87.192635
129.754112
199.393204
362.480957
85.874413
322.292206
56.581703
79.385925
167.343796
98.777443
49.670895
273.765747
248.819382
380.605133
90.393837
244.571777
183.359436
313.920563
261.624542
106.591614
216.326096
305.372040
194.479019
82.664322
162.755447
145.418472
177.538528
123.212952
67.993771
76.761505
152.644623
125.743195
26.247879
102.081551
19.417475
18.762003
117.558701
103.645958
178.669205
123.761284
125.104782
108.374260
272.260376
130.016556
21.854657
36.752232
321.994598
207.201263
184.729477
103.252380
67.436710
130.916046
241.821686
220.367828
188.934280
235.651123
126.585663
86.833603
122.964485
80.916077
290.122925
140.396088
243.845047
262.184036
138.442017
373.052979
162.831009
196.903931
149.880737
425.153931
276.655365
68.881950
56.356030
175.949417
280.751801
97.660645
121.873726
117.198402
122.421700
295.855804
29.108356
156.211075
188.643753
269.973816
107.766731
118.483513
98.079468
72.692253
111.611305
137.841019
167.155716
48.212128
43.410980
109.142052
46.862789
112.700150
41.665823
153.525818
43.165794
33.010956
25.052011
49.870117
55.814129
96.241295
48.957241
128.150078
114.414757
34.834078
60.709217
35.148293
43.150032
127.960892
63.457645
118.310341
50.755650
173.084122
88.387085
219.363815
182.152390
137.278603
89.497871
190.096680
182.992554
175.735718
107.100960
129.767387
199.132751
143.869598
218.893967
102.630470
170.564819
73.969444
75.231697
72.877258
114.879890
159.010864
93.405731
96.457169
104.899086
132.138870
79.780060
142.005859
94.113503
212.476242
283.865692
292.473969
227.787766
139.224091
121.061081
296.011749
243.402176
169.862900
227.408554
130.791367
98.506973
220.759415
494.256226
375.707642
164.619553
28.594427
40.189650
55.543274
76.901108
36.475065
179.306839
192.821594
446.615967
380.820251
186.251694
14.447407
49.280380
193.437302
105.058029
70.490524
72.402340
294.538086
219.032272
84.061485
43.499016
45.893272
80.156975
46.217804
63.597038
33.817289
40.047306
88.211960
72.877182
63.043880
63.215855
74.481438
76.992180
90.412735
40.575380
108.561043
180.545746
201.936478
119.570206
136.462677
48.343113
92.269249
132.590996
82.019279
46.363655
19.292186
51.187939
80.728165
72.921886
65.783920
35.925020
75.680458
97.859299
148.844513
166.327621
246.471710
167.438385
274.862030
62.453762
214.884933
195.694931
98.195724
141.699524
151.129715
34.244440

