# vtk DataFile Version 3.1
Tetrahedral Mesh Visualization
ASCII
DATASET UNSTRUCTURED_GRID

POINTS 277 FLOAT
0.000000 1.378113 1.754166
0.000000 0.000000 0.000000
1.996038 -0.035905 0.020325
0.000000 1.666667 0.000000
2.417299 -0.035282 1.759784
0.000000 0.000000 1.666667
1.687395 2.443378 0.015128
2.994971 2.415653 2.352893
3.978414 4.975261 0.021843
3.071244 4.964125 1.673104
5.196790 4.965563 1.624461
3.468361 3.145399 0.015840
5.368873 3.270109 0.000310
5.954468 4.973305 -0.007337
7.307897 3.292750 -0.050419
6.942940 4.972557 1.296942
9.236345 2.151989 1.919205
8.662244 4.968201 1.528031
9.284419 3.312483 -0.114261
10.627652 4.977902 1.512212
11.279446 3.323329 -0.168611
11.085126 1.850268 1.390483
10.617788 1.651562 -0.153415
12.614784 1.657393 -0.194604
13.281945 3.320974 -0.203386
12.944150 1.863416 1.292826
14.615834 1.654125 -0.220143
13.953883 -0.011755 -0.210225
15.454437 2.132885 1.449108
15.318560 -0.010112 1.421543
13.315472 -0.009865 1.464357
17.273184 -0.001528 1.335090
16.619184 1.662112 -0.263386
17.953787 0.003886 -0.287505
15.953831 -0.007352 -0.250594
18.631290 1.665240 -0.294393
18.985628 0.000179 1.018133
19.961176 0.008102 -0.319718
16.755526 -0.008458 3.041866
19.010092 -0.009995 2.802721
17.716976 2.682511 2.666766
18.043173 -0.018006 4.717884
16.728327 1.646857 4.743788
16.045824 -0.017413 4.753707
14.705917 -0.012640 3.101559
15.795237 2.874413 3.107291
18.771296 1.680726 4.702711
17.357550 3.323577 4.729712
19.321854 3.373454 4.702304
19.333382 4.991587 3.032456
21.027494 3.666028 4.676722
21.333206 4.996890 3.012238
19.626846 2.489807 2.042761
20.643255 5.001305 1.351984
21.913660 2.517132 2.133490
22.645559 5.001458 1.318833
23.252373 3.390597 -0.364845
23.968863 2.446663 1.917705
24.966476 3.684032 -0.388906
24.973835 1.895039 -0.384506
25.974730 2.500385 1.338094
27.242550 1.709812 -0.413561
26.678478 3.396097 -0.401523
29.254333 -0.006643 1.154451
27.970707 0.009151 -0.444918
29.285631 1.673675 -0.444602
30.967173 -0.013380 0.834265
31.977367 -0.008185 -0.493758
31.285437 1.653439 -0.482381
29.965572 -0.002059 -0.468255
33.253475 1.641589 -0.490870
33.976505 -0.014087 -0.493177
32.664268 -0.016501 1.116775
34.575592 -0.019125 1.198728
34.988636 2.383753 2.062796
36.485268 -0.017629 1.320199
35.135845 -0.029793 2.896302
36.828423 -0.029679 3.041535
38.314770 2.477135 4.506558
37.682671 2.144820 1.694560
38.291527 -0.023715 2.028542
37.955975 -0.012767 -0.500531
38.017197 -0.035992 4.495864
36.019005 -0.038792 4.503672
36.575825 1.706734 4.509604
34.945591 1.297994 4.513084
34.865837 3.096359 4.527267
36.777664 3.439483 4.525051
34.014500 4.963611 4.532280
32.709854 3.271915 4.520063
33.276344 4.976796 2.873532
32.019119 4.969990 4.534867
35.161816 4.971765 2.931445
32.201134 2.573778 1.945964
34.583988 4.983165 1.225769
32.610321 3.314734 -0.482047
33.200508 -0.021999 2.822076
30.977215 -0.029591 2.627537
31.332529 1.622530 4.524246
33.260712 1.575915 4.519352
30.691187 3.298531 4.548598
28.686970 3.320411 4.572372
29.344662 1.645079 4.554438
30.019138 2.481329 2.029710
27.959579 2.488931 2.064819
26.680128 3.326842 4.583713
27.341885 1.654377 4.577805
24.642963 4.997139 1.274822
21.960121 5.002313 -0.338104
21.294634 3.348712 -0.331127
22.695833 1.701541 -0.356789
19.956900 5.001126 -0.305659
19.294500 3.331702 -0.306779
18.642502 4.990769 1.370213
17.950602 4.991182 -0.286222
17.287527 3.325673 -0.275942
15.943471 4.986701 -0.253727
16.640135 4.989133 1.400581
14.638264 4.986897 1.437047
13.709934 2.942154 3.051567
13.044430 1.304231 4.800555
12.689200 -0.009874 3.142142
14.047945 -0.020260 4.781310
11.322900 1.600436 4.834499
10.682482 -0.012609 3.178409
12.047859 -0.015146 4.821753
10.055217 -0.022403 4.858854
11.311307 -0.011589 1.498088
9.291218 -0.023383 1.553618
9.949631 -0.018236 -0.138640
8.631691 1.636945 -0.093863
7.931834 4.974216 -0.059786
9.932055 4.984555 -0.124151
11.236172 2.628814 3.118465
9.266386 4.974339 3.199568
10.792379 3.291948 4.847399
11.322803 4.986304 3.160369
10.054598 4.976877 4.871192
12.051999 4.983658 4.815543
8.050718 4.960933 4.941538
8.788178 3.361184 4.903486
6.971104 4.956092 3.089004
5.387651 3.319603 4.987022
6.034838 4.941850 4.994771
7.074970 3.639042 4.959280
5.141662 2.326681 3.138493
4.626523 4.964860 3.310752
3.501917 3.160073 5.016857
4.017908 4.959934 5.021682
2.370513 4.970596 3.302176
4.811471 1.567411 0.005198
4.894194 -0.049708 1.879269
6.678835 1.607055 -0.042442
6.996757 2.520721 2.152287
8.676009 -0.027645 3.240913
17.338547 4.995124 3.057353
15.343337 4.989516 3.091332
16.047426 4.983295 4.750564
14.758585 1.594745 4.771120
15.309010 3.289561 4.759266
11.952682 -0.011445 -0.184272
15.283601 3.321774 -0.238384
13.941265 4.989914 -0.211626
12.631735 4.987316 1.471650
13.340182 4.982573 3.122489
7.223031 -0.038382 1.639690
6.688982 -0.033571 3.342707
4.934278 1.606707 4.990492
6.040394 -0.027494 4.969334
4.925086 -0.040317 3.657565
4.020702 -0.031741 5.007105
7.094023 1.850558 4.955132
8.056880 -0.034800 4.915428
9.324575 1.668067 4.883923
21.030159 1.875101 4.667255
22.737619 3.394228 4.647987
24.032467 5.004987 4.625514
24.691296 3.343561 4.613025
23.337778 4.999564 2.972013
27.327585 4.994874 2.915926
26.643171 4.999039 1.257216
25.330956 5.003215 2.933704
35.129345 1.597545 -0.484230
36.804058 1.447784 -0.491899
40.006779 3.213476 3.119945
39.991547 1.605117 2.092297
38.305492 4.976568 2.065582
39.986908 3.232366 1.391745
40.009411 4.967211 2.842234
38.028778 4.947805 4.544538
40.024906 4.952147 4.513263
40.026039 3.286116 4.501388
40.023266 1.625405 4.492556
40.000755 -0.028649 2.822151
39.974640 -0.020037 1.155838
39.946293 0.000235 -0.518766
39.949104 1.662756 -0.506032
39.960667 3.332708 -0.506278
38.266869 2.468715 -0.495498
37.967236 5.001306 -0.464578
39.989159 4.983503 1.173019
36.848351 4.972223 3.087788
36.500950 4.982274 1.366057
36.475330 3.174201 -0.476960
35.977875 4.998466 -0.456436
34.565979 3.297408 -0.477778
33.978222 4.989752 -0.475769
30.624462 3.320992 -0.461381
29.976192 4.995144 -0.439359
31.972132 4.983171 -0.469817
30.641603 4.976581 1.215127
28.635574 3.345273 -0.425583
26.721533 -0.009431 2.954608
27.251677 0.001869 1.256471
25.335480 1.662009 4.608110
24.023891 -0.005176 4.621322
26.022684 -0.013750 4.581653
25.003942 -0.007994 3.281534
23.292231 1.702946 4.635484
23.279070 0.005938 3.015730
21.272894 -0.004159 2.969086
22.034504 -0.005784 4.650344
20.034573 -0.023068 4.673622
18.041746 4.989677 4.714499
20.033121 4.981421 4.695996
22.720804 0.003895 1.330717
24.986982 -0.009344 1.486683
23.964893 0.006101 -0.377612
25.972145 0.009962 -0.410741
25.967083 5.004735 -0.401303
25.704876 2.223852 3.090036
28.646688 4.992405 1.241770
27.970566 5.004055 -0.412416
26.026638 5.002527 4.590656
11.939417 4.986520 -0.180615
13.048328 3.094067 4.793697
14.045979 4.988303 4.777220
22.029566 4.995941 4.666658
28.728601 -0.013549 2.859477
29.330687 4.984223 2.898726
30.026974 4.977814 4.554412
31.316587 4.972418 2.875526
32.015762 -0.033863 4.512815
34.010189 -0.031637 4.508591
36.020561 4.956814 4.536944
32.625763 4.975995 1.197225
20.649113 1.677104 -0.328965
20.715759 0.005441 1.281450
23.955477 4.996753 -0.377871
28.018761 4.983996 4.577709
39.962231 4.995907 -0.499577
3.192707 1.435222 5.023419
0.000000 3.103853 1.750106
0.000000 5.000000 1.666667
0.000000 3.333333 0.000000
1.998167 4.975596 0.014149
0.000000 5.000000 0.000000
0.000000 5.000000 3.333333
0.000000 0.000000 3.333333
1.703639 2.451607 5.017865
3.040162 -0.036362 3.417471
1.998275 -0.019621 5.019293
0.000000 2.403264 3.370902
0.000000 1.666667 5.000000
0.000000 3.333333 5.000000
0.000000 0.000000 5.000000
28.016632 -0.017251 4.554464
30.017569 -0.023621 4.531720
35.964935 -0.013935 -0.493940
40.013153 -0.044117 4.487457
7.950872 -0.031850 -0.078949
2.003150 4.980569 5.013158
3.144962 1.416312 0.017284
3.983261 -0.042607 0.004171
21.965193 0.003353 -0.350790
0.000000 5.000000 5.000000
5.958797 -0.049893 -0.029823

CELLS 734 3670
4 0 1 2 3
4 0 4 2 5
4 0 3 2 6
4 4 6 0 2
4 4 6 7 0
4 8 9 10 11
4 12 13 14 15
4 16 17 14 18
4 19 20 18 21
4 20 22 21 23
4 24 25 26 23
4 25 27 26 23
4 26 28 29 30
4 28 29 31 32
4 33 34 32 31
4 31 33 35 32
4 31 33 36 35
4 33 37 36 35
4 38 39 40 31
4 41 42 43 38
4 44 42 45 38
4 44 42 38 43
4 46 38 42 41
4 46 47 40 48
4 49 50 51 52
4 53 54 51 55
4 56 54 55 57
4 56 58 59 57
4 60 59 61 62
4 63 61 64 65
4 66 67 68 69
4 67 70 71 72
4 73 74 75 76
4 74 77 75 76
4 77 78 79 80
4 79 81 75 80
4 77 78 80 82
4 77 83 76 84
4 83 85 76 84
4 85 86 74 84
4 74 86 87 84
4 88 89 86 90
4 91 89 88 90
4 86 88 90 92
4 90 86 92 74
4 86 89 74 90
4 93 94 95 74
4 70 74 72 93
4 70 73 71 72
4 74 96 73 72
4 66 97 93 72
4 96 97 72 93
4 96 98 97 93
4 85 96 74 99
4 96 98 93 99
4 98 89 100 93
4 101 102 100 103
4 104 105 101 106
4 107 58 57 60
4 58 107 57 56
4 53 108 109 55
4 56 110 109 54
4 53 111 109 108
4 112 53 109 52
4 111 112 113 53
4 112 111 113 114
4 115 116 114 117
4 40 28 115 117
4 45 117 118 28
4 119 28 25 44
4 120 44 121 122
4 123 121 124 125
4 125 123 126 124
4 127 128 21 124
4 16 129 128 21
4 16 18 14 130
4 16 17 18 19
4 131 17 132 18
4 16 19 18 21
4 133 16 19 134
4 135 134 133 136
4 135 137 136 138
4 137 134 139 140
4 141 142 143 144
4 145 146 147 7
4 142 148 147 146
4 7 146 147 149
4 10 7 9 146
4 145 150 7 151
4 152 151 150 153
4 16 128 154 124
4 124 21 121 133
4 25 28 30 44
4 28 38 45 40
4 45 47 40 42
4 155 45 156 47
4 157 156 47 155
4 155 45 40 117
4 45 42 158 159
4 44 42 43 158
4 119 45 158 159
4 120 44 158 119
4 25 127 21 121
4 25 27 160 30
4 127 25 160 30
4 25 127 121 30
4 44 25 121 30
4 28 30 44 29
4 119 28 44 45
4 119 28 118 25
4 28 24 26 161
4 26 32 29 28
4 28 31 29 38
4 46 38 41 39
4 46 38 39 40
4 28 117 40 45
4 118 28 117 161
4 162 24 118 161
4 118 119 163 164
4 136 119 164 163
4 25 133 21 163
4 128 16 21 124
4 165 166 153 154
4 166 167 168 169
4 167 168 169 170
4 171 168 172 166
4 124 173 126 154
4 123 121 133 124
4 120 125 122 121
4 122 158 44 43
4 47 46 40 42
4 52 50 174 48
4 175 50 174 54
4 176 175 177 178
4 179 60 180 181
4 64 69 63 65
4 68 72 67 66
4 70 73 182 71
4 74 79 183 75
4 184 78 185 79
4 79 184 186 187
4 186 184 188 187
4 184 189 190 191
4 184 78 79 186
4 78 189 184 191
4 189 184 190 188
4 184 78 191 192
4 184 78 192 185
4 192 78 80 185
4 193 80 194 185
4 195 81 196 194
4 81 79 196 194
4 197 187 196 198
4 187 79 185 196
4 79 184 187 185
4 197 199 187 198
4 199 197 187 200
4 199 200 187 186
4 78 201 79 186
4 189 201 87 78
4 202 201 79 74
4 201 74 92 87
4 201 202 92 74
4 201 202 79 186
4 202 203 74 79
4 202 198 203 79
4 204 202 199 203
4 202 203 205 74
4 202 204 205 203
4 182 203 74 205
4 74 203 183 79
4 79 203 183 198
4 79 81 198 183
4 81 79 198 196
4 187 79 196 198
4 202 198 79 186
4 202 204 94 205
4 94 95 205 206
4 207 208 209 210
4 208 207 211 210
4 104 103 211 65
4 104 60 212 213
4 214 215 216 217
4 218 219 220 221
4 222 174 220 221
4 46 39 222 174
4 52 46 40 48
4 40 49 52 48
4 53 49 52 113
4 40 49 155 113
4 155 45 47 40
4 157 47 223 155
4 49 223 224 48
4 52 50 51 54
4 175 54 57 178
4 218 175 54 57
4 225 219 54 57
4 218 175 57 177
4 57 217 219 218
4 219 225 226 57
4 225 227 226 57
4 59 110 57 227
4 59 60 61 228
4 61 60 213 228
4 64 61 213 228
4 63 61 213 64
4 61 104 211 65
4 180 60 104 62
4 58 229 62 180
4 58 60 180 62
4 60 61 104 62
4 60 226 230 212
4 226 60 213 212
4 60 104 212 230
4 179 60 230 104
4 104 211 231 62
4 180 229 62 232
4 180 232 62 231
4 179 60 104 180
4 233 181 105 179
4 181 105 179 230
4 105 214 106 230
4 105 214 230 177
4 215 214 218 217
4 215 217 218 219
4 218 215 219 221
4 218 175 174 54
4 39 52 220 174
4 39 46 52 174
4 115 52 112 35
4 28 115 117 161
4 162 118 116 161
4 24 162 118 163
4 20 19 234 163
4 25 133 163 119
4 120 119 158 235
4 236 119 235 159
4 235 119 158 159
4 119 235 133 136
4 138 235 236 164
4 45 47 42 159
4 46 38 40 42
4 49 50 52 48
4 237 175 176 178
4 181 233 177 176
4 180 179 231 104
4 207 103 65 211
4 207 103 68 65
4 65 66 103 68
4 103 66 97 93
4 66 103 97 63
4 213 104 63 238
4 238 97 103 63
4 104 102 103 238
4 104 106 212 230
4 214 212 106 230
4 214 212 216 106
4 214 212 217 216
4 214 212 230 217
4 226 217 230 212
4 226 60 230 57
4 181 60 57 230
4 179 105 104 230
4 179 105 101 104
4 104 239 103 101
4 239 101 240 100
4 91 241 240 100
4 241 239 240 100
4 239 241 103 100
4 103 210 93 241
4 103 207 93 210
4 210 103 231 239
4 103 239 104 231
4 103 104 63 65
4 65 66 63 103
4 65 66 68 69
4 68 72 66 93
4 96 98 242 97
4 85 96 99 243
4 85 86 99 74
4 86 89 99 74
4 88 86 244 92
4 74 86 92 87
4 201 244 87 92
4 244 86 87 92
4 90 74 92 94
4 94 95 206 245
4 95 209 206 245
4 245 207 95 209
4 208 232 231 211
4 180 104 231 62
4 181 60 107 57
4 54 175 51 178
4 50 52 174 54
4 246 36 52 247
4 246 36 37 35
4 52 31 36 35
4 31 39 52 36
4 39 46 222 41
4 39 222 174 220
4 174 218 220 221
4 218 219 54 220
4 225 219 220 54
4 56 110 54 57
4 110 56 59 57
4 60 59 226 228
4 60 226 213 228
4 57 217 230 226
4 214 217 230 218
4 218 57 230 177
4 181 105 230 177
4 179 60 181 230
4 58 107 180 60
4 229 107 58 248
4 229 107 180 58
4 60 58 59 62
4 58 107 56 248
4 108 56 109 55
4 108 56 55 248
4 107 56 55 57
4 107 181 57 178
4 57 181 177 178
4 181 176 177 178
4 233 181 177 105
4 249 239 101 240
4 91 89 241 100
4 89 91 241 90
4 210 245 93 241
4 245 241 90 93
4 93 94 90 245
4 74 202 92 94
4 205 204 94 206
4 202 198 199 203
4 202 198 186 199
4 199 197 200 250
4 199 186 187 198
4 200 186 188 187
4 184 189 186 188
4 201 189 87 244
4 189 201 78 186
4 201 78 79 87
4 189 78 184 186
4 186 79 187 198
4 74 201 79 87
4 74 79 84 87
4 79 78 84 87
4 77 78 84 79
4 74 77 84 79
4 74 85 84 76
4 83 243 76 85
4 85 96 243 76
4 73 96 74 76
4 96 93 74 99
4 89 93 99 74
4 93 94 74 90
4 93 94 245 95
4 207 95 68 93
4 95 70 68 93
4 95 70 74 205
4 74 70 182 205
4 94 95 74 205
4 241 89 90 93
4 104 179 231 239
4 181 60 180 107
4 107 57 55 178
4 57 54 55 178
4 53 49 51 52
4 40 49 113 52
4 155 47 223 48
4 45 47 159 156
4 119 156 45 159
4 120 44 119 121
4 16 173 124 154
4 166 167 169 145
4 145 7 147 251
4 9 7 252 149
4 253 254 252 255
4 256 253 255 254
4 6 9 252 255
4 253 257 149 252
4 7 258 259 260
4 260 261 251 170
4 169 260 251 170
4 169 251 167 170
4 166 167 145 171
4 16 22 18 130
4 25 24 20 23
4 24 25 118 28
4 119 156 118 45
4 119 28 45 118
4 119 45 44 158
4 44 38 28 29
4 25 28 26 30
4 25 24 26 28
4 24 20 234 163
4 162 24 234 163
4 163 119 118 25
4 235 135 133 136
4 135 134 140 133
4 145 141 153 144
4 145 260 169 151
4 0 258 4 5
4 259 258 262 263
4 264 259 262 263
4 258 7 262 0
4 260 258 259 261
4 258 261 263 259
4 261 258 263 265
4 261 260 251 259
4 167 251 169 145
4 145 260 251 169
4 166 167 171 168
4 16 171 153 140
4 137 135 136 134
4 138 135 235 136
4 235 138 136 164
4 236 119 156 164
4 157 156 159 47
4 155 47 48 40
4 40 49 48 155
4 46 52 174 48
4 247 225 220 54
4 110 225 57 227
4 60 59 57 226
4 104 61 211 62
4 232 211 62 231
4 103 104 211 231
4 239 210 103 241
4 241 93 103 100
4 68 72 93 70
4 103 207 68 93
4 207 103 211 210
4 210 208 231 211
4 103 210 231 211
4 245 207 210 93
4 245 207 209 210
4 245 207 93 95
4 70 95 74 93
4 70 73 74 182
4 182 203 183 74
4 202 74 205 94
4 93 89 90 74
4 89 241 100 93
4 93 98 103 100
4 101 104 102 103
4 104 101 102 106
4 106 238 104 212
4 266 216 212 106
4 106 238 212 266
4 106 238 102 104
4 267 266 238 102
4 97 102 267 238
4 106 238 266 102
4 97 102 238 103
4 97 102 103 98
4 97 102 98 267
4 97 98 242 267
4 96 98 99 242
4 89 98 99 93
4 239 101 100 103
4 104 179 239 101
4 179 249 239 101
4 105 179 101 249
4 233 105 249 179
4 177 181 57 230
4 175 57 177 178
4 175 237 51 178
4 55 54 51 178
4 112 111 109 53
4 112 53 52 113
4 117 115 113 114
4 116 118 117 161
4 115 116 117 161
4 28 115 161 32
4 29 32 26 34
4 26 30 29 27
4 34 26 29 27
4 29 34 31 32
4 31 115 32 35
4 31 115 28 32
4 246 112 52 35
4 246 247 52 54
4 247 110 225 54
4 59 227 57 226
4 213 104 238 212
4 104 103 63 238
4 97 98 103 93
4 70 73 72 74
4 71 182 268 73
4 182 75 268 73
4 182 75 183 268
4 183 81 268 75
4 182 75 74 183
4 79 81 183 75
4 79 81 80 194
4 78 192 80 82
4 192 193 80 82
4 269 193 192 82
4 193 192 80 185
4 80 79 194 185
4 77 74 75 79
4 85 96 76 74
4 96 243 242 99
4 98 102 103 100
4 104 105 106 230
4 214 218 230 177
4 50 175 51 54
4 49 155 223 48
4 157 156 236 159
4 236 119 159 156
4 235 119 164 136
4 236 119 164 235
4 133 235 120 123
4 120 235 133 119
4 135 123 235 133
4 124 173 123 126
4 173 172 126 154
4 166 171 154 172
4 172 171 154 173
4 171 16 154 173
4 171 166 154 153
4 16 171 154 153
4 124 173 16 133
4 124 173 133 123
4 25 133 119 121
4 19 16 133 21
4 163 19 133 21
4 134 19 133 136
4 133 119 136 163
4 133 19 163 136
4 132 20 18 19
4 20 132 234 19
4 20 19 163 21
4 22 20 21 18
4 16 22 21 18
4 128 129 127 21
4 160 129 21 127
4 160 21 25 127
4 25 20 21 23
4 25 27 23 160
4 25 27 30 26
4 23 22 21 160
4 16 129 21 22
4 128 130 165 270
4 128 130 270 129
4 128 130 16 165
4 16 165 153 154
4 17 16 14 153
4 131 17 18 14
4 17 141 153 15
4 12 10 15 153
4 15 17 14 153
4 153 16 14 130
4 16 129 22 130
4 128 130 129 16
4 16 128 165 154
4 151 166 153 165
4 260 145 7 151
4 9 6 252 7
4 7 262 252 149
4 260 259 7 251
4 7 259 147 251
4 264 259 271 149
4 259 7 147 149
4 146 148 147 149
4 271 259 147 149
4 148 271 147 149
4 146 142 143 141
4 144 141 140 139
4 141 134 140 139
4 143 141 144 139
4 142 145 141 146
4 145 142 141 144
4 148 142 143 146
4 145 7 10 146
4 145 150 151 153
4 151 272 150 7
4 151 272 273 150
4 151 272 4 273
4 4 272 2 273
4 151 272 7 4
4 4 260 7 151
4 166 145 151 153
4 166 145 169 151
4 171 166 153 145
4 133 16 140 173
4 124 16 21 133
4 25 21 160 23
4 21 129 160 22
4 121 21 124 127
4 121 120 133 119
4 123 121 125 120
4 123 121 120 133
4 25 133 121 21
4 25 20 163 21
4 118 24 28 161
4 26 28 161 32
4 40 115 28 31
4 115 52 113 112
4 246 112 109 52
4 246 52 109 54
4 56 54 109 55
4 56 107 55 248
4 58 60 59 57
4 63 61 65 104
4 68 72 70 67
4 182 75 73 74
4 77 79 75 80
4 196 79 185 194
4 79 78 185 80
4 77 78 82 84
4 83 77 82 84
4 77 74 84 76
4 96 74 93 72
4 103 66 93 68
4 65 66 69 63
4 63 61 104 213
4 61 60 104 213
4 59 227 226 228
4 274 110 227 225
4 246 36 247 37
4 246 36 35 52
4 52 115 40 31
4 28 31 38 40
4 44 42 158 45
4 120 44 122 158
4 135 133 140 173
4 171 16 173 140
4 171 144 153 140
4 141 144 140 153
4 10 141 15 153
4 10 12 15 13
4 10 8 12 13
4 8 10 12 11
4 8 9 11 255
4 9 253 149 252
4 257 262 149 252
4 262 259 149 7
4 258 7 4 260
4 259 258 7 262
4 262 0 7 252
4 0 6 7 252
4 254 6 252 255
4 0 3 6 252
4 6 3 254 252
4 272 6 11 7
4 4 6 272 7
4 4 6 2 272
4 9 6 11 255
4 9 253 252 255
4 262 264 257 149
4 257 264 275 271
4 259 264 262 149
4 257 264 271 149
4 9 146 7 149
4 10 7 11 9
4 7 12 10 11
4 145 150 153 12
4 12 145 10 153
4 145 146 10 141
4 145 142 147 146
4 171 145 153 144
4 171 142 145 144
4 142 171 145 167
4 142 145 147 167
4 167 145 147 251
4 145 260 7 251
4 145 150 12 7
4 12 145 7 10
4 12 152 153 14
4 152 153 14 130
4 152 151 153 165
4 165 152 276 270
4 152 151 165 276
4 165 152 270 130
4 152 151 276 150
4 276 150 151 273
4 272 7 11 150
4 7 12 11 150
4 153 150 152 12
4 165 16 153 130
4 165 152 130 153
4 15 12 153 14
4 13 131 14 15
4 17 131 15 14
4 17 132 18 19
4 25 24 163 20
4 25 24 118 163
4 119 156 164 118
4 118 117 45 156
4 155 45 117 156
4 113 40 117 155
4 50 49 224 48
4 49 50 224 51
4 50 237 224 51
4 237 50 175 51
4 52 54 220 174
4 52 247 220 54
4 39 247 220 52
4 39 247 52 36
4 115 52 35 31
4 40 115 52 113
4 40 115 113 117
4 115 112 113 114
4 53 52 51 54
4 54 53 109 55
4 52 53 109 54
4 110 246 109 54
4 247 110 54 246
4 247 110 274 225
4 246 274 37 247
4 247 110 246 274
4 110 225 54 57
4 57 217 226 219
4 57 217 218 230
4 219 218 54 57
4 218 54 174 220
4 46 39 52 40
4 39 31 52 40
4 38 42 45 40
4 28 38 44 45
4 121 25 44 119
4 123 135 173 133
4 134 153 140 16
4 134 16 140 133
4 137 135 134 140
4 134 153 141 140
4 134 153 16 17
4 16 17 19 134
4 134 153 17 141
4 153 145 10 141
4 6 9 11 7
4 258 7 0 4
4 1 0 2 5

CELL_TYPES 734
10
10
10
10
10
10
10
10
10
10
10
10
10
10
10
10
10
10
10
10
10
10
10
10
10
10
10
10
10
10
10
10
10
10
10
10
10
10
10
10
10
10
10
10
10
10
10
10
10
10
10
10
10
10
10
10
10
10
10
10
10
10
10
10
10
10
10
10
10
10
10
10
10
10
10
10
10
10
10
10
10
10
10
10
10
10
10
10
10
10
10
10
10
10
10
10
10
10
10
10
10
10
10
10
10
10
10
10
10
10
10
10
10
10
10
10
10
10
10
10
10
10
10
10
10
10
10
10
10
10
10
10
10
10
10
10
10
10
10
10
10
10
10
10
10
10
10
10
10
10
10
10
10
10
10
10
10
10
10
10
10
10
10
10
10
10
10
10
10
10
10
10
10
10
10
10
10
10
10
10
10
10
10
10
10
10
10
10
10
10
10
10
10
10
10
10
10
10
10
10
10
10
10
10
10
10
10
10
10
10
10
10
10
10
10
10
10
10
10
10
10
10
10
10
10
10
10
10
10
10
10
10
10
10
10
10
10
10
10
10
10
10
10
10
10
10
10
10
10
10
10
10
10
10
10
10
10
10
10
10
10
10
10
10
10
10
10
10
10
10
10
10
10
10
10
10
10
10
10
10
10
10
10
10
10
10
10
10
10
10
10
10
10
10
10
10
10
10
10
10
10
10
10
10
10
10
10
10
10
10
10
10
10
10
10
10
10
10
10
10
10
10
10
10
10
10
10
10
10
10
10
10
10
10
10
10
10
10
10
10
10
10
10
10
10
10
10
10
10
10
10
10
10
10
10
10
10
10
10
10
10
10
10
10
10
10
10
10
10
10
10
10
10
10
10
10
10
10
10
10
10
10
10
10
10
10
10
10
10
10
10
10
10
10
10
10
10
10
10
10
10
10
10
10
10
10
10
10
10
10
10
10
10
10
10
10
10
10
10
10
10
10
10
10
10
10
10
10
10
10
10
10
10
10
10
10
10
10
10
10
10
10
10
10
10
10
10
10
10
10
10
10
10
10
10
10
10
10
10
10
10
10
10
10
10
10
10
10
10
10
10
10
10
10
10
10
10
10
10
10
10
10
10
10
10
10
10
10
10
10
10
10
10
10
10
10
10
10
10
10
10
10
10
10
10
10
10
10
10
10
10
10
10
10
10
10
10
10
10
10
10
10
10
10
10
10
10
10
10
10
10
10
10
10
10
10
10
10
10
10
10
10
10
10
10
10
10
10
10
10
10
10
10
10
10
10
10
10
10
10
10
10
10
10
10
10
10
10
10
10
10
10
10
10
10
10
10
10
10
10
10
10
10
10
10
10
10
10
10
10
10
10
10
10
10
10
10
10
10
10
10
10
10
10
10
10
10
10
10
10
10
10
10
10
10
10
10
10
10
10
10
10
10
10
10
10
10
10
10
10
10
10
10
10
10
10
10
10
10
10
10
10
10
10
10
10
10
10
10
10
10
10
10
10
10
10
10
10
10
10
10
10
10
10
10
10
10
10
10
10
10
10
10
10
10
10
10
10
10
10
10
10
10
10
10
10
10
10
10
10
10
10
10
10
10
10
10
10
10
10
10
10
10
10
10
10
10
10
10
10
10
10
10
10
10
10
10
10
10
10
10
10
10
10
10
10
10
10
10
10
10
10
10
10

CELL_DATA 734
SCALARS potentialEnergy FLOAT 1
LOOKUP_TABLE default
335.965668
236.395386
307.348755
472.319672
490.127106
78.825752
160.021164
245.359924
89.767365
26.326986
88.052620
50.179649
60.117172
65.105366
20.906869
166.521835
36.538389
54.723175
63.496819
26.426279
43.720039
26.877075
54.367813
79.069687
31.459976
92.388046
82.566727
108.637474
40.283384
72.406040
86.509361
64.080490
57.921654
69.760101
104.016914
118.529602
164.393539
88.202744
70.758286
30.926598
47.678547
126.016228
76.580292
121.555573
243.263931
235.373444
298.624115
240.533264
71.914017
145.578354
45.995907
135.353287
157.888916
129.484306
169.558121
138.741226
60.921318
88.718269
87.909569
91.726669
28.099371
39.882748
30.704393
182.204254
76.471634
129.997276
93.740692
44.992947
80.246254
200.531342
31.495565
19.770631
48.197556
111.157776
83.157692
154.044098
214.117599
57.915539
126.774673
79.391129
96.372559
37.799223
177.072021
255.189865
330.362549
210.669922
135.246872
161.107697
253.555847
436.838959
46.771278
59.011154
108.378250
46.401031
52.661507
80.796791
67.231163
18.333963
28.116756
25.542567
36.225346
31.874382
44.752319
27.364565
49.828152
98.996513
54.230385
104.478874
89.329041
189.728256
30.501226
34.342665
67.712276
80.652733
141.105988
97.590904
19.225795
76.812996
58.498718
31.808706
54.287327
95.310478
116.536942
133.623596
219.999573
344.396393
68.434387
27.712963
33.939901
27.995928
77.928696
52.106388
97.369125
33.097416
82.402565
71.070576
19.680482
79.277504
65.540337
98.403801
33.466841
27.881052
26.354445
30.217558
65.658569
85.798782
128.643074
93.291077
109.516243
107.770508
287.958740
282.809998
113.178978
225.868881
83.329628
62.146202
23.788987
76.023415
102.316177
88.332527
143.168060
307.677307
173.726059
54.396801
193.877365
130.979088
141.443115
342.318176
127.738121
148.339569
70.680489
62.929577
206.096497
269.884644
179.498947
96.234352
258.536041
128.019165
85.640839
81.860741
106.791588
65.157162
191.111526
57.351620
60.996834
71.452518
51.022087
162.010101
52.802437
84.516014
73.249287
63.332336
143.851883
38.326593
136.617058
109.997948
97.029610
71.321926
79.141281
79.683235
115.647354
156.426346
66.766361
119.116592
72.720715
42.558140
143.195389
90.234383
57.436977
83.018311
96.551270
202.997650
192.898010
63.311310
104.225662
63.416065
66.514965
95.524643
56.430927
160.909988
149.274765
29.616499
70.006298
71.673340
63.858112
126.027191
105.124481
60.581825
60.153152
40.555370
79.726425
70.736492
59.685707
54.767429
54.134151
30.766895
61.140049
56.500484
30.021235
45.661278
33.975931
94.562531
115.352715
61.346764
33.447195
87.862076
168.824997
180.098801
143.788925
115.468300
75.296608
81.077988
88.413788
142.703003
134.034645
73.035194
44.732002
64.255981
89.859245
125.162346
42.142273
130.769753
121.199951
117.584076
141.424377
57.467468
58.644135
45.575916
246.220520
136.787109
123.704803
92.925735
116.580994
82.029099
82.966866
67.120499
216.970062
78.572800
37.658150
115.894989
151.308395
116.421532
104.688309
71.990532
48.157814
304.233124
188.772049
83.689133
38.791018
55.901291
126.626572
42.241928
127.887199
33.508600
52.070816
51.806606
41.183973
63.006405
89.554695
57.728828
60.101913
124.645477
85.253922
44.663013
147.754486
90.904709
97.923553
77.838112
78.036018
109.492447
105.632759
145.943130
65.437866
76.112762
30.696491
49.981140
78.543930
50.917843
48.467026
81.127022
105.437286
116.001953
59.632805
77.252388
84.443146
77.506935
40.545027
31.154913
206.778473
114.028343
222.280655
221.098618
90.245705
80.258667
62.276196
120.721985
44.433475
78.112167
159.307587
144.934464
42.668488
95.192932
62.152767
61.328907
88.760986
24.741266
65.253677
71.796329
52.359161
90.239693
144.162857
91.811852
307.959137
130.821716
129.645729
186.659882
44.304577
52.649506
149.436813
266.590179
253.463211
62.512596
122.353294
27.488081
67.835217
82.526184
29.767500
86.668968
71.643417
55.353626
74.063469
67.121059
299.040253
262.704529
130.987434
449.137909
156.139923
133.039177
297.388214
193.198792
737.924316
378.932343
100.666878
181.554153
566.585571
151.200043
25.787694
104.144302
85.758125
85.167091
47.574753
86.087341
95.647545
89.213379
34.202002
30.835321
94.555923
58.619656
125.178841
237.873032
140.535797
221.490143
439.468109
305.746277
398.241119
204.563446
100.034882
126.105247
167.236282
331.864929
217.079544
393.647095
195.466171
67.508453
26.954453
31.376970
36.982307
49.325008
89.690796
151.692627
58.815815
52.027550
60.953835
58.047977
107.062737
48.243004
152.026627
85.465157
107.254539
113.846512
129.207352
171.956009
77.957321
188.672241
20.002234
24.637153
26.704224
194.852585
277.936157
78.263222
382.470673
180.810165
125.235695
123.424088
88.569458
80.268700
91.348434
43.848488
49.173145
119.715858
48.954800
76.633636
44.430752
132.662910
154.262283
69.787128
49.172668
67.130703
56.902058
131.247406
156.389740
96.385864
103.875877
140.900620
170.962036
78.374466
57.107433
93.422401
97.492699
114.769707
22.353786
40.468542
28.707596
45.995007
86.799873
32.233955
24.673357
38.428986
52.786407
148.542496
40.259501
61.320530
56.659546
99.397766
79.169617
92.988167
136.873863
203.891693
137.243820
49.493977
47.373444
149.604050
80.783646
90.524414
82.021919
161.332397
126.513016
76.011780
89.011932
43.129459
55.618664
111.736992
91.159210
115.032707
133.569016
62.033535
83.838066
71.423855
58.565044
42.208786
24.111691
23.083880
27.951223
32.391954
134.491890
39.717730
79.336197
108.645767
118.947083
200.505981
232.618362
185.733414
139.372787
83.492477
97.319473
74.759949
74.076004
65.565514
73.858776
98.378960
31.473625
72.313034
169.427826
72.914551
76.260719
134.546227
30.020462
20.199031
12.575221
67.435627
24.537396
91.296455
68.567528
257.514099
97.708412
128.676086
83.447945
238.548431
57.442070
272.073517
200.368484
345.184418
160.834534
100.065742
85.607094
56.450031
93.580055
92.899658
548.013184
355.769775
160.230682
262.472031
241.348877
300.322449
159.699753
210.548538
261.448685
107.145042
161.806610
207.453186
210.040268
325.330139
232.109329
332.584442
76.905083
282.500336
222.271286
177.672470
101.628601
145.135910
152.908585
239.171082
87.064240
330.223389
90.962624
118.818230
59.980438
15.502433
41.831352
45.588455
81.487343
28.914030
125.972008
71.653824
79.249939
32.958323
34.799667
69.343719
60.529392
39.009617
64.423859
101.378975
78.549194
102.779488
122.336090
16.191339
74.292007
76.403030
188.424438
99.887703
103.333351
79.264771
63.707260
183.736313
134.541641
19.418469
124.708473
54.050510
132.185745
17.394659
53.030861
62.383675
43.102871
128.855392
24.479847
31.454580
117.824982
190.761627
199.672440
288.785248
92.424660
108.764900
290.875610
218.164246
279.467773
274.928497
252.456589
545.926270
463.017670
532.119934
292.000092
374.178589
206.554947
399.415863
385.360474
325.173889
340.367645
277.602417
298.609039
226.830704
257.257370
156.343811
452.435883
203.166489
91.203445
216.147675
494.205048
182.032120
177.923111
188.535156
541.231873
52.615662
197.198639
290.295929
179.764114
237.306396
144.303925
90.827881
87.462616
333.381042
161.043427
185.764008
144.249512
300.969147
193.272110
351.447021
405.613739
150.688690
267.160095
533.139771
171.983459
264.347473
471.394653
231.969513
137.315903
56.260998
44.812157
35.076241
45.764515
121.980247
52.808746
31.221743
50.806736
70.300869
51.175941
49.131603
119.531822
60.227016
85.154762
70.938599
102.961624
122.129921
61.592480
87.910675
37.072609
45.766853
58.183716
56.032139
57.612068
70.989464
20.428851
80.742447
57.465435
113.168785
128.982193
81.346924
239.563217
112.787483
55.151806
95.606033
145.896515
139.501328
61.354671
279.012054
202.960449
67.702530
364.579407
101.131683
147.128006
166.926666
83.249710
532.807495
390.729004
266.086090

