# vtk DataFile Version 3.1
Tetrahedral Mesh Visualization
ASCII
DATASET UNSTRUCTURED_GRID

POINTS 277 FLOAT
0.000000 1.378113 1.754166
0.000000 0.000000 0.000000
1.999724 -0.022663 -0.000456
0.000000 1.666667 0.000000
2.422520 -0.010907 1.730207
0.000000 0.000000 1.666667
1.690176 2.450329 -0.006249
2.999844 2.447212 2.310510
3.996339 4.989641 -0.019691
3.075205 4.986755 1.628322
5.209802 4.996307 1.585277
3.484897 3.164968 -0.019804
5.399490 3.297695 -0.027245
5.993515 5.001350 -0.022782
7.349551 3.327020 -0.037043
6.965413 5.000779 1.295864
9.247496 2.174491 1.980816
8.688899 5.002014 1.557762
9.324379 3.327081 -0.060099
10.645781 4.998727 1.580050
11.319941 3.332786 -0.073092
11.100453 1.869205 1.491574
10.653846 1.667488 -0.064839
12.653729 1.666259 -0.064639
13.314171 3.328631 -0.071203
12.960781 1.878747 1.433801
14.646209 1.657855 -0.063233
13.975144 -0.004366 -0.055913
15.456367 2.138387 1.623109
15.319093 -0.004862 1.599755
13.319679 0.002840 1.610916
17.277004 -0.010427 1.536759
16.642584 1.653310 -0.073137
17.968941 -0.017145 -0.080109
15.972252 -0.008524 -0.067578
18.647177 1.643062 -0.092457
18.987022 -0.024142 1.234075
19.967505 -0.042482 -0.092859
16.734713 -0.000558 3.231839
19.000984 -0.004325 3.020685
17.709225 2.683283 2.850898
18.012585 0.011847 4.921277
16.700844 1.680000 4.916108
16.011934 0.019106 4.934628
14.681064 0.002242 3.272738
15.781088 2.895200 3.274593
18.750065 1.705777 4.898828
17.339417 3.352292 4.900224
19.309811 3.395846 4.886024
19.341742 4.993481 3.213520
21.024576 3.679313 4.870389
21.343250 4.990287 3.196313
19.628223 2.480862 2.244795
20.655609 4.979042 1.535521
21.915573 2.496812 2.338517
22.656027 4.971277 1.505951
23.258032 3.338872 -0.160297
23.971865 2.431832 2.138808
24.971252 3.619424 -0.178606
24.969379 1.830319 -0.159517
25.974514 2.465362 1.568688
27.226574 1.638626 -0.156232
26.677038 3.331238 -0.180214
29.254976 -0.046181 1.458409
27.965439 -0.062554 -0.149068
29.264788 1.601900 -0.177924
30.965469 -0.059410 1.149415
31.947916 -0.081958 -0.188535
31.254107 1.585542 -0.204430
29.959349 -0.074187 -0.161344
33.212624 1.569641 -0.251341
33.946140 -0.082370 -0.234220
32.667225 -0.061212 1.409400
34.590225 -0.047968 1.422702
34.990978 2.364956 2.217603
36.514835 -0.024905 1.483671
35.179729 -0.016103 3.096542
36.884811 -0.004244 3.196040
38.353458 2.550576 4.570600
37.684757 2.156722 1.782438
38.337551 0.009538 2.150303
37.961422 -0.025880 -0.370776
38.095589 0.040793 4.628756
36.084488 0.012008 4.673666
36.628418 1.755887 4.631618
34.992531 1.331545 4.689658
34.901539 3.117169 4.671453
36.806057 3.493605 4.607347
34.051243 4.965067 4.694559
32.737919 3.271395 4.749519
33.281857 4.953135 3.061721
32.047497 4.972990 4.743220
35.162285 4.979836 3.042144
32.199497 2.546414 2.197365
34.556107 4.945027 1.362352
32.573200 3.244401 -0.255572
33.227768 -0.033468 3.091449
30.987858 -0.039719 2.940223
31.348175 1.634081 4.796601
33.292736 1.583785 4.751756
30.706148 3.304697 4.794542
28.699263 3.318178 4.822009
29.359085 1.649691 4.828200
30.016470 2.458559 2.285571
27.958250 2.463374 2.320323
26.686678 3.330868 4.827708
27.346453 1.661816 4.843409
24.659937 4.961768 1.481689
21.976093 4.958523 -0.150579
21.302746 3.302645 -0.132223
22.704182 1.648429 -0.135499
19.983746 4.973957 -0.124566
19.310375 3.310190 -0.111964
18.657139 4.988586 1.555751
17.982735 4.987309 -0.098070
17.311960 3.317343 -0.087976
15.982127 4.983118 -0.099879
16.651663 4.995692 1.563678
14.649208 4.999186 1.583406
13.696208 2.969359 3.202968
13.006602 1.342542 4.932960
12.666050 0.007840 3.273749
14.007621 0.022332 4.946941
11.288747 1.633506 4.936999
10.663930 0.005425 3.274218
12.009812 0.017384 4.942656
10.018486 0.013927 4.949426
11.315572 0.004816 1.602256
9.300497 -0.002064 1.620279
9.979845 -0.000046 -0.060659
8.668287 1.657773 -0.046537
7.983874 5.004256 -0.044055
9.979407 4.993580 -0.075345
11.221499 2.654834 3.218293
9.259287 5.007994 3.243394
10.756569 3.331930 4.936306
11.311090 5.012356 3.246267
10.018964 5.025224 4.928574
12.011397 5.028359 4.912264
8.017560 5.012812 4.962287
8.759562 3.407330 4.955502
6.971551 4.997667 3.087059
5.368525 3.375467 4.971653
6.008640 5.002308 4.974444
7.048780 3.691522 4.973699
5.147650 2.373613 3.113376
4.624445 5.001884 3.267651
3.494635 3.194108 4.978514
4.001480 5.003061 4.978646
2.369959 4.993560 3.265933
4.834120 1.599927 -0.026500
4.909603 0.001776 1.855341
6.715148 1.648179 -0.035797
7.013962 2.560642 2.162489
8.662498 0.001944 3.300156
17.336958 5.002307 3.221138
15.331520 5.007947 3.244929
16.021173 5.018843 4.902175
14.726655 1.629684 4.930200
15.285394 3.323534 4.921400
11.980966 0.003310 -0.063849
15.312453 3.321040 -0.073982
13.986617 4.991061 -0.082807
12.648001 5.003921 1.587280
13.327888 5.010708 3.253224
7.236491 -0.003700 1.663066
6.681188 0.011267 3.359060
4.928875 1.655377 4.973454
6.019683 0.011927 4.975156
4.922670 0.007584 3.641071
4.016433 0.006522 4.981160
7.071646 1.904353 4.974170
8.025129 0.013426 4.968915
9.295747 1.707788 4.952972
21.019533 1.889024 4.873833
22.733986 3.388665 4.854761
24.029444 4.990047 4.834588
24.691267 3.337595 4.835489
23.341700 4.982479 3.169150
27.339590 4.977964 3.147120
26.655592 4.953633 1.476237
25.342459 4.986259 3.153075
35.099407 1.533314 -0.309265
36.780067 1.408683 -0.365815
40.015182 3.286597 3.132710
40.016163 1.661383 2.138356
38.282639 5.009295 2.076478
39.973854 3.274517 1.410981
39.995899 5.040612 2.815993
38.046410 5.028226 4.551100
40.045650 5.059064 4.478014
40.053265 3.395213 4.508334
40.077503 1.737728 4.545941
40.053726 0.049988 2.907264
40.014057 0.021102 1.240665
39.965939 0.008119 -0.428581
39.940762 1.670440 -0.451371
39.920773 3.338315 -0.482801
38.238480 2.444977 -0.423858
37.900997 4.978496 -0.444447
39.944550 5.025807 1.149272
36.842461 4.998333 3.136620
36.470909 4.975564 1.426345
36.439320 3.130076 -0.371335
35.908600 4.948054 -0.377962
34.527004 3.227033 -0.321588
33.924320 4.918509 -0.317190
30.607830 3.265116 -0.206574
29.963200 4.939720 -0.217980
31.948786 4.922900 -0.265539
30.634966 4.954164 1.440418
28.623764 3.274523 -0.185719
26.729475 -0.016786 3.236888
27.258413 -0.042746 1.547344
25.337498 1.665273 4.841334
24.019611 -0.004350 4.855737
26.018742 -0.012856 4.847144
25.007931 -0.011925 3.528368
23.286039 1.696289 4.848608
23.282234 -0.013548 3.246658
21.270933 -0.010499 3.195724
22.022438 0.000490 4.876794
20.016619 0.002608 4.895043
18.020741 5.011526 4.881611
20.027664 4.997469 4.875586
22.723316 -0.025724 1.563733
24.990376 -0.029478 1.739697
23.964325 -0.057128 -0.134821
25.970564 -0.064562 -0.139100
25.978230 4.932580 -0.194137
25.709755 2.219397 3.327002
28.649488 4.948775 1.469139
27.977203 4.939506 -0.194916
26.028629 4.992993 4.823254
11.984610 4.999836 -0.077292
13.010083 3.134015 4.929289
14.014668 5.019247 4.916836
22.031239 4.996168 4.855690
28.738840 -0.023838 3.160627
29.338509 4.966142 3.131123
30.042429 4.979803 4.785094
31.323275 4.956204 3.098555
32.045765 -0.011009 4.806487
34.069923 -0.005743 4.744697
36.049210 5.000776 4.622833
32.608868 4.946933 1.401891
20.655165 1.631810 -0.110875
20.713219 -0.024410 1.510540
23.977549 4.942349 -0.177975
28.035921 4.987655 4.806899
39.905235 5.006866 -0.512740
3.192842 1.470501 4.988535
0.000000 3.103853 1.750106
0.000000 5.000000 1.666667
0.000000 3.333333 0.000000
1.999434 4.983397 -0.011221
0.000000 5.000000 0.000000
0.000000 5.000000 3.333333
0.000000 0.000000 3.333333
1.701901 2.470122 4.992282
3.043911 0.002585 3.381092
2.003771 0.008726 4.995468
0.000000 2.403264 3.370902
0.000000 1.666667 5.000000
0.000000 3.333333 5.000000
0.000000 0.000000 5.000000
28.019503 -0.006802 4.850988
30.028521 -0.016819 4.840011
35.955437 -0.057171 -0.315463
40.099079 0.070521 4.574200
7.984160 -0.010095 -0.036608
2.000124 4.996092 4.987805
3.157775 1.437156 -0.013505
3.996374 -0.012662 -0.015906
21.965403 -0.053097 -0.112779
0.000000 5.000000 5.000000
5.991938 -0.003730 -0.030952

CELLS 734 3670
4 0 1 2 3
4 0 4 2 5
4 0 3 2 6
4 4 6 0 2
4 4 6 7 0
4 8 9 10 11
4 12 13 14 15
4 16 17 14 18
4 19 20 18 21
4 20 22 21 23
4 24 25 26 23
4 25 27 26 23
4 26 28 29 30
4 28 29 31 32
4 33 34 32 31
4 31 33 35 32
4 31 33 36 35
4 33 37 36 35
4 38 39 40 31
4 41 42 43 38
4 44 42 45 38
4 44 42 38 43
4 46 38 42 41
4 46 47 40 48
4 49 50 51 52
4 53 54 51 55
4 56 54 55 57
4 56 58 59 57
4 60 59 61 62
4 63 61 64 65
4 66 67 68 69
4 67 70 71 72
4 73 74 75 76
4 74 77 75 76
4 77 78 79 80
4 79 81 75 80
4 77 78 80 82
4 77 83 76 84
4 83 85 76 84
4 85 86 74 84
4 74 86 87 84
4 88 89 86 90
4 91 89 88 90
4 86 88 90 92
4 90 86 92 74
4 86 89 74 90
4 93 94 95 74
4 70 74 72 93
4 70 73 71 72
4 74 96 73 72
4 66 97 93 72
4 96 97 72 93
4 96 98 97 93
4 85 96 74 99
4 96 98 93 99
4 98 89 100 93
4 101 102 100 103
4 104 105 101 106
4 107 58 57 60
4 58 107 57 56
4 53 108 109 55
4 56 110 109 54
4 53 111 109 108
4 112 53 109 52
4 111 112 113 53
4 112 111 113 114
4 115 116 114 117
4 40 28 115 117
4 45 117 118 28
4 119 28 25 44
4 120 44 121 122
4 123 121 124 125
4 125 123 126 124
4 127 128 21 124
4 16 129 128 21
4 16 18 14 130
4 16 17 18 19
4 131 17 132 18
4 16 19 18 21
4 133 16 19 134
4 135 134 133 136
4 135 137 136 138
4 137 134 139 140
4 141 142 143 144
4 145 146 147 7
4 142 148 147 146
4 7 146 147 149
4 10 7 9 146
4 145 150 7 151
4 152 151 150 153
4 16 128 154 124
4 124 21 121 133
4 25 28 30 44
4 28 38 45 40
4 45 47 40 42
4 155 45 156 47
4 157 156 47 155
4 155 45 40 117
4 45 42 158 159
4 44 42 43 158
4 119 45 158 159
4 120 44 158 119
4 25 127 21 121
4 25 27 160 30
4 127 25 160 30
4 25 127 121 30
4 44 25 121 30
4 28 30 44 29
4 119 28 44 45
4 119 28 118 25
4 28 24 26 161
4 26 32 29 28
4 28 31 29 38
4 46 38 41 39
4 46 38 39 40
4 28 117 40 45
4 118 28 117 161
4 162 24 118 161
4 118 119 163 164
4 136 119 164 163
4 25 133 21 163
4 128 16 21 124
4 165 166 153 154
4 166 167 168 169
4 167 168 169 170
4 171 168 172 166
4 124 173 126 154
4 123 121 133 124
4 120 125 122 121
4 122 158 44 43
4 47 46 40 42
4 52 50 174 48
4 175 50 174 54
4 176 175 177 178
4 179 60 180 181
4 64 69 63 65
4 68 72 67 66
4 70 73 182 71
4 74 79 183 75
4 184 78 185 79
4 79 184 186 187
4 186 184 188 187
4 184 189 190 191
4 184 78 79 186
4 78 189 184 191
4 189 184 190 188
4 184 78 191 192
4 184 78 192 185
4 192 78 80 185
4 193 80 194 185
4 195 81 196 194
4 81 79 196 194
4 197 187 196 198
4 187 79 185 196
4 79 184 187 185
4 197 199 187 198
4 199 197 187 200
4 199 200 187 186
4 78 201 79 186
4 189 201 87 78
4 202 201 79 74
4 201 74 92 87
4 201 202 92 74
4 201 202 79 186
4 202 203 74 79
4 202 198 203 79
4 204 202 199 203
4 202 203 205 74
4 202 204 205 203
4 182 203 74 205
4 74 203 183 79
4 79 203 183 198
4 79 81 198 183
4 81 79 198 196
4 187 79 196 198
4 202 198 79 186
4 202 204 94 205
4 94 95 205 206
4 207 208 209 210
4 208 207 211 210
4 104 103 211 65
4 104 60 212 213
4 214 215 216 217
4 218 219 220 221
4 222 174 220 221
4 46 39 222 174
4 52 46 40 48
4 40 49 52 48
4 53 49 52 113
4 40 49 155 113
4 155 45 47 40
4 157 47 223 155
4 49 223 224 48
4 52 50 51 54
4 175 54 57 178
4 218 175 54 57
4 225 219 54 57
4 218 175 57 177
4 57 217 219 218
4 219 225 226 57
4 225 227 226 57
4 59 110 57 227
4 59 60 61 228
4 61 60 213 228
4 64 61 213 228
4 63 61 213 64
4 61 104 211 65
4 180 60 104 62
4 58 229 62 180
4 58 60 180 62
4 60 61 104 62
4 60 226 230 212
4 226 60 213 212
4 60 104 212 230
4 179 60 230 104
4 104 211 231 62
4 180 229 62 232
4 180 232 62 231
4 179 60 104 180
4 233 181 105 179
4 181 105 179 230
4 105 214 106 230
4 105 214 230 177
4 215 214 218 217
4 215 217 218 219
4 218 215 219 221
4 218 175 174 54
4 39 52 220 174
4 39 46 52 174
4 115 52 112 35
4 28 115 117 161
4 162 118 116 161
4 24 162 118 163
4 20 19 234 163
4 25 133 163 119
4 120 119 158 235
4 236 119 235 159
4 235 119 158 159
4 119 235 133 136
4 138 235 236 164
4 45 47 42 159
4 46 38 40 42
4 49 50 52 48
4 237 175 176 178
4 181 233 177 176
4 180 179 231 104
4 207 103 65 211
4 207 103 68 65
4 65 66 103 68
4 103 66 97 93
4 66 103 97 63
4 213 104 63 238
4 238 97 103 63
4 104 102 103 238
4 104 106 212 230
4 214 212 106 230
4 214 212 216 106
4 214 212 217 216
4 214 212 230 217
4 226 217 230 212
4 226 60 230 57
4 181 60 57 230
4 179 105 104 230
4 179 105 101 104
4 104 239 103 101
4 239 101 240 100
4 91 241 240 100
4 241 239 240 100
4 239 241 103 100
4 103 210 93 241
4 103 207 93 210
4 210 103 231 239
4 103 239 104 231
4 103 104 63 65
4 65 66 63 103
4 65 66 68 69
4 68 72 66 93
4 96 98 242 97
4 85 96 99 243
4 85 86 99 74
4 86 89 99 74
4 88 86 244 92
4 74 86 92 87
4 201 244 87 92
4 244 86 87 92
4 90 74 92 94
4 94 95 206 245
4 95 209 206 245
4 245 207 95 209
4 208 232 231 211
4 180 104 231 62
4 181 60 107 57
4 54 175 51 178
4 50 52 174 54
4 246 36 52 247
4 246 36 37 35
4 52 31 36 35
4 31 39 52 36
4 39 46 222 41
4 39 222 174 220
4 174 218 220 221
4 218 219 54 220
4 225 219 220 54
4 56 110 54 57
4 110 56 59 57
4 60 59 226 228
4 60 226 213 228
4 57 217 230 226
4 214 217 230 218
4 218 57 230 177
4 181 105 230 177
4 179 60 181 230
4 58 107 180 60
4 229 107 58 248
4 229 107 180 58
4 60 58 59 62
4 58 107 56 248
4 108 56 109 55
4 108 56 55 248
4 107 56 55 57
4 107 181 57 178
4 57 181 177 178
4 181 176 177 178
4 233 181 177 105
4 249 239 101 240
4 91 89 241 100
4 89 91 241 90
4 210 245 93 241
4 245 241 90 93
4 93 94 90 245
4 74 202 92 94
4 205 204 94 206
4 202 198 199 203
4 202 198 186 199
4 199 197 200 250
4 199 186 187 198
4 200 186 188 187
4 184 189 186 188
4 201 189 87 244
4 189 201 78 186
4 201 78 79 87
4 189 78 184 186
4 186 79 187 198
4 74 201 79 87
4 74 79 84 87
4 79 78 84 87
4 77 78 84 79
4 74 77 84 79
4 74 85 84 76
4 83 243 76 85
4 85 96 243 76
4 73 96 74 76
4 96 93 74 99
4 89 93 99 74
4 93 94 74 90
4 93 94 245 95
4 207 95 68 93
4 95 70 68 93
4 95 70 74 205
4 74 70 182 205
4 94 95 74 205
4 241 89 90 93
4 104 179 231 239
4 181 60 180 107
4 107 57 55 178
4 57 54 55 178
4 53 49 51 52
4 40 49 113 52
4 155 47 223 48
4 45 47 159 156
4 119 156 45 159
4 120 44 119 121
4 16 173 124 154
4 166 167 169 145
4 145 7 147 251
4 9 7 252 149
4 253 254 252 255
4 256 253 255 254
4 6 9 252 255
4 253 257 149 252
4 7 258 259 260
4 260 261 251 170
4 169 260 251 170
4 169 251 167 170
4 166 167 145 171
4 16 22 18 130
4 25 24 20 23
4 24 25 118 28
4 119 156 118 45
4 119 28 45 118
4 119 45 44 158
4 44 38 28 29
4 25 28 26 30
4 25 24 26 28
4 24 20 234 163
4 162 24 234 163
4 163 119 118 25
4 235 135 133 136
4 135 134 140 133
4 145 141 153 144
4 145 260 169 151
4 0 258 4 5
4 259 258 262 263
4 264 259 262 263
4 258 7 262 0
4 260 258 259 261
4 258 261 263 259
4 261 258 263 265
4 261 260 251 259
4 167 251 169 145
4 145 260 251 169
4 166 167 171 168
4 16 171 153 140
4 137 135 136 134
4 138 135 235 136
4 235 138 136 164
4 236 119 156 164
4 157 156 159 47
4 155 47 48 40
4 40 49 48 155
4 46 52 174 48
4 247 225 220 54
4 110 225 57 227
4 60 59 57 226
4 104 61 211 62
4 232 211 62 231
4 103 104 211 231
4 239 210 103 241
4 241 93 103 100
4 68 72 93 70
4 103 207 68 93
4 207 103 211 210
4 210 208 231 211
4 103 210 231 211
4 245 207 210 93
4 245 207 209 210
4 245 207 93 95
4 70 95 74 93
4 70 73 74 182
4 182 203 183 74
4 202 74 205 94
4 93 89 90 74
4 89 241 100 93
4 93 98 103 100
4 101 104 102 103
4 104 101 102 106
4 106 238 104 212
4 266 216 212 106
4 106 238 212 266
4 106 238 102 104
4 267 266 238 102
4 97 102 267 238
4 106 238 266 102
4 97 102 238 103
4 97 102 103 98
4 97 102 98 267
4 97 98 242 267
4 96 98 99 242
4 89 98 99 93
4 239 101 100 103
4 104 179 239 101
4 179 249 239 101
4 105 179 101 249
4 233 105 249 179
4 177 181 57 230
4 175 57 177 178
4 175 237 51 178
4 55 54 51 178
4 112 111 109 53
4 112 53 52 113
4 117 115 113 114
4 116 118 117 161
4 115 116 117 161
4 28 115 161 32
4 29 32 26 34
4 26 30 29 27
4 34 26 29 27
4 29 34 31 32
4 31 115 32 35
4 31 115 28 32
4 246 112 52 35
4 246 247 52 54
4 247 110 225 54
4 59 227 57 226
4 213 104 238 212
4 104 103 63 238
4 97 98 103 93
4 70 73 72 74
4 71 182 268 73
4 182 75 268 73
4 182 75 183 268
4 183 81 268 75
4 182 75 74 183
4 79 81 183 75
4 79 81 80 194
4 78 192 80 82
4 192 193 80 82
4 269 193 192 82
4 193 192 80 185
4 80 79 194 185
4 77 74 75 79
4 85 96 76 74
4 96 243 242 99
4 98 102 103 100
4 104 105 106 230
4 214 218 230 177
4 50 175 51 54
4 49 155 223 48
4 157 156 236 159
4 236 119 159 156
4 235 119 164 136
4 236 119 164 235
4 133 235 120 123
4 120 235 133 119
4 135 123 235 133
4 124 173 123 126
4 173 172 126 154
4 166 171 154 172
4 172 171 154 173
4 171 16 154 173
4 171 166 154 153
4 16 171 154 153
4 124 173 16 133
4 124 173 133 123
4 25 133 119 121
4 19 16 133 21
4 163 19 133 21
4 134 19 133 136
4 133 119 136 163
4 133 19 163 136
4 132 20 18 19
4 20 132 234 19
4 20 19 163 21
4 22 20 21 18
4 16 22 21 18
4 128 129 127 21
4 160 129 21 127
4 160 21 25 127
4 25 20 21 23
4 25 27 23 160
4 25 27 30 26
4 23 22 21 160
4 16 129 21 22
4 128 130 165 270
4 128 130 270 129
4 128 130 16 165
4 16 165 153 154
4 17 16 14 153
4 131 17 18 14
4 17 141 153 15
4 12 10 15 153
4 15 17 14 153
4 153 16 14 130
4 16 129 22 130
4 128 130 129 16
4 16 128 165 154
4 151 166 153 165
4 260 145 7 151
4 9 6 252 7
4 7 262 252 149
4 260 259 7 251
4 7 259 147 251
4 264 259 271 149
4 259 7 147 149
4 146 148 147 149
4 271 259 147 149
4 148 271 147 149
4 146 142 143 141
4 144 141 140 139
4 141 134 140 139
4 143 141 144 139
4 142 145 141 146
4 145 142 141 144
4 148 142 143 146
4 145 7 10 146
4 145 150 151 153
4 151 272 150 7
4 151 272 273 150
4 151 272 4 273
4 4 272 2 273
4 151 272 7 4
4 4 260 7 151
4 166 145 151 153
4 166 145 169 151
4 171 166 153 145
4 133 16 140 173
4 124 16 21 133
4 25 21 160 23
4 21 129 160 22
4 121 21 124 127
4 121 120 133 119
4 123 121 125 120
4 123 121 120 133
4 25 133 121 21
4 25 20 163 21
4 118 24 28 161
4 26 28 161 32
4 40 115 28 31
4 115 52 113 112
4 246 112 109 52
4 246 52 109 54
4 56 54 109 55
4 56 107 55 248
4 58 60 59 57
4 63 61 65 104
4 68 72 70 67
4 182 75 73 74
4 77 79 75 80
4 196 79 185 194
4 79 78 185 80
4 77 78 82 84
4 83 77 82 84
4 77 74 84 76
4 96 74 93 72
4 103 66 93 68
4 65 66 69 63
4 63 61 104 213
4 61 60 104 213
4 59 227 226 228
4 274 110 227 225
4 246 36 247 37
4 246 36 35 52
4 52 115 40 31
4 28 31 38 40
4 44 42 158 45
4 120 44 122 158
4 135 133 140 173
4 171 16 173 140
4 171 144 153 140
4 141 144 140 153
4 10 141 15 153
4 10 12 15 13
4 10 8 12 13
4 8 10 12 11
4 8 9 11 255
4 9 253 149 252
4 257 262 149 252
4 262 259 149 7
4 258 7 4 260
4 259 258 7 262
4 262 0 7 252
4 0 6 7 252
4 254 6 252 255
4 0 3 6 252
4 6 3 254 252
4 272 6 11 7
4 4 6 272 7
4 4 6 2 272
4 9 6 11 255
4 9 253 252 255
4 262 264 257 149
4 257 264 275 271
4 259 264 262 149
4 257 264 271 149
4 9 146 7 149
4 10 7 11 9
4 7 12 10 11
4 145 150 153 12
4 12 145 10 153
4 145 146 10 141
4 145 142 147 146
4 171 145 153 144
4 171 142 145 144
4 142 171 145 167
4 142 145 147 167
4 167 145 147 251
4 145 260 7 251
4 145 150 12 7
4 12 145 7 10
4 12 152 153 14
4 152 153 14 130
4 152 151 153 165
4 165 152 276 270
4 152 151 165 276
4 165 152 270 130
4 152 151 276 150
4 276 150 151 273
4 272 7 11 150
4 7 12 11 150
4 153 150 152 12
4 165 16 153 130
4 165 152 130 153
4 15 12 153 14
4 13 131 14 15
4 17 131 15 14
4 17 132 18 19
4 25 24 163 20
4 25 24 118 163
4 119 156 164 118
4 118 117 45 156
4 155 45 117 156
4 113 40 117 155
4 50 49 224 48
4 49 50 224 51
4 50 237 224 51
4 237 50 175 51
4 52 54 220 174
4 52 247 220 54
4 39 247 220 52
4 39 247 52 36
4 115 52 35 31
4 40 115 52 113
4 40 115 113 117
4 115 112 113 114
4 53 52 51 54
4 54 53 109 55
4 52 53 109 54
4 110 246 109 54
4 247 110 54 246
4 247 110 274 225
4 246 274 37 247
4 247 110 246 274
4 110 225 54 57
4 57 217 226 219
4 57 217 218 230
4 219 218 54 57
4 218 54 174 220
4 46 39 52 40
4 39 31 52 40
4 38 42 45 40
4 28 38 44 45
4 121 25 44 119
4 123 135 173 133
4 134 153 140 16
4 134 16 140 133
4 137 135 134 140
4 134 153 141 140
4 134 153 16 17
4 16 17 19 134
4 134 153 17 141
4 153 145 10 141
4 6 9 11 7
4 258 7 0 4
4 1 0 2 5

CELL_TYPES 734
10
10
10
10
10
10
10
10
10
10
10
10
10
10
10
10
10
10
10
10
10
10
10
10
10
10
10
10
10
10
10
10
10
10
10
10
10
10
10
10
10
10
10
10
10
10
10
10
10
10
10
10
10
10
10
10
10
10
10
10
10
10
10
10
10
10
10
10
10
10
10
10
10
10
10
10
10
10
10
10
10
10
10
10
10
10
10
10
10
10
10
10
10
10
10
10
10
10
10
10
10
10
10
10
10
10
10
10
10
10
10
10
10
10
10
10
10
10
10
10
10
10
10
10
10
10
10
10
10
10
10
10
10
10
10
10
10
10
10
10
10
10
10
10
10
10
10
10
10
10
10
10
10
10
10
10
10
10
10
10
10
10
10
10
10
10
10
10
10
10
10
10
10
10
10
10
10
10
10
10
10
10
10
10
10
10
10
10
10
10
10
10
10
10
10
10
10
10
10
10
10
10
10
10
10
10
10
10
10
10
10
10
10
10
10
10
10
10
10
10
10
10
10
10
10
10
10
10
10
10
10
10
10
10
10
10
10
10
10
10
10
10
10
10
10
10
10
10
10
10
10
10
10
10
10
10
10
10
10
10
10
10
10
10
10
10
10
10
10
10
10
10
10
10
10
10
10
10
10
10
10
10
10
10
10
10
10
10
10
10
10
10
10
10
10
10
10
10
10
10
10
10
10
10
10
10
10
10
10
10
10
10
10
10
10
10
10
10
10
10
10
10
10
10
10
10
10
10
10
10
10
10
10
10
10
10
10
10
10
10
10
10
10
10
10
10
10
10
10
10
10
10
10
10
10
10
10
10
10
10
10
10
10
10
10
10
10
10
10
10
10
10
10
10
10
10
10
10
10
10
10
10
10
10
10
10
10
10
10
10
10
10
10
10
10
10
10
10
10
10
10
10
10
10
10
10
10
10
10
10
10
10
10
10
10
10
10
10
10
10
10
10
10
10
10
10
10
10
10
10
10
10
10
10
10
10
10
10
10
10
10
10
10
10
10
10
10
10
10
10
10
10
10
10
10
10
10
10
10
10
10
10
10
10
10
10
10
10
10
10
10
10
10
10
10
10
10
10
10
10
10
10
10
10
10
10
10
10
10
10
10
10
10
10
10
10
10
10
10
10
10
10
10
10
10
10
10
10
10
10
10
10
10
10
10
10
10
10
10
10
10
10
10
10
10
10
10
10
10
10
10
10
10
10
10
10
10
10
10
10
10
10
10
10
10
10
10
10
10
10
10
10
10
10
10
10
10
10
10
10
10
10
10
10
10
10
10
10
10
10
10
10
10
10
10
10
10
10
10
10
10
10
10
10
10
10
10
10
10
10
10
10
10
10
10
10
10
10
10
10
10
10
10
10
10
10
10
10
10
10
10
10
10
10
10
10
10
10
10
10
10
10
10
10
10
10
10
10
10
10
10
10
10
10
10
10
10
10
10
10
10
10
10
10
10
10
10
10
10
10
10
10
10
10
10
10
10
10
10
10
10
10
10
10
10
10
10
10
10
10
10
10
10
10
10
10
10
10
10
10
10
10
10
10
10
10
10
10
10
10
10
10
10
10
10
10
10
10
10
10
10
10
10
10
10
10
10
10
10
10
10
10
10
10
10
10
10
10
10
10
10
10
10
10
10
10
10
10
10
10
10
10
10
10

CELL_DATA 734
SCALARS potentialEnergy FLOAT 1
LOOKUP_TABLE default
81.476982
115.221428
148.617584
79.267410
81.900970
28.767326
66.785389
124.569931
79.097427
68.483612
73.682617
49.411011
44.569889
13.934835
47.817539
43.408257
25.224550
51.913078
25.871283
13.714513
74.386833
31.448303
26.118034
71.690655
13.476476
59.907173
202.155228
79.748985
145.031036
127.531265
153.076416
56.923309
299.883881
190.754837
153.731369
175.452881
228.555664
138.626663
154.671021
240.145615
70.445267
350.226868
68.714752
281.642120
312.949188
374.491241
227.382233
104.549370
91.972809
160.766357
66.732815
132.898575
238.944733
481.817719
230.107498
76.418373
28.906475
215.653290
242.040726
123.459206
43.060574
79.045570
53.109352
88.066170
21.184337
35.290581
65.933746
99.060829
27.573025
80.292496
74.505722
86.628471
90.191933
79.876450
46.808270
59.979511
102.836205
56.178223
82.869995
113.784981
40.258362
49.376415
93.257057
129.379768
66.610271
48.840977
92.249382
90.280487
56.844620
112.359512
78.839012
97.547821
51.564880
39.924273
48.729065
39.679855
43.706955
31.804647
39.179268
21.349577
42.305767
123.822693
79.873253
93.319916
64.816719
123.746414
108.382385
99.909416
85.387154
80.738853
32.480894
28.055265
40.795422
28.578617
21.030568
128.986290
127.506729
53.277740
35.548462
66.249931
121.985428
33.545376
90.143478
40.475807
34.662535
135.235405
48.235775
91.379250
92.654556
30.388912
47.812290
32.347160
23.314720
40.105265
207.848816
139.149414
42.124756
124.289001
64.277615
91.400688
180.191055
135.991386
137.729889
135.550224
137.496788
117.817993
96.399239
148.983810
242.955093
43.744522
209.417221
177.207138
72.196552
98.922279
76.739265
154.043961
106.849876
124.800789
163.961212
84.450233
134.629501
133.012756
89.980446
97.508347
166.863388
102.495125
63.884556
168.840546
52.926147
108.586494
94.075462
86.634087
72.084175
105.408127
92.057465
159.737854
64.778378
103.469284
190.132874
75.577553
133.509941
173.731064
50.341347
13.424474
30.584709
28.032129
17.398384
21.594799
223.889069
89.706390
35.280159
28.900814
62.799603
15.712530
50.428974
35.549030
44.329685
60.262974
30.556622
120.882912
95.589905
165.624573
230.201263
233.571732
188.932495
128.448143
128.920036
269.222839
120.030487
179.746735
262.223297
99.036163
169.778519
240.450073
147.767258
345.193604
145.207611
47.503380
135.747910
75.993080
70.785763
119.092087
48.991096
29.902847
31.993931
21.776964
46.207661
58.046032
35.300644
40.558031
67.455166
68.068520
48.060520
31.001696
107.079269
47.888809
61.027100
92.249428
51.047592
81.348129
30.551710
32.592897
34.022785
48.454288
119.628792
117.644379
175.407059
128.488480
395.455017
94.370872
96.209641
142.220245
65.659184
121.042130
181.634842
99.442444
81.841408
60.655704
77.559547
88.370163
122.135544
121.805061
161.630112
382.845581
105.328789
23.884377
56.927380
38.185646
62.510590
116.771706
153.173904
62.776958
67.644711
246.949966
150.952911
109.746803
102.821815
125.467865
160.600632
374.034576
310.226013
231.182846
290.008942
206.421158
122.684074
169.909805
120.461754
319.887390
206.707062
156.044586
266.542938
188.777893
44.712734
36.922691
47.383827
56.605064
169.405457
43.691727
97.547462
34.231285
20.460900
32.809059
56.213650
35.107264
78.076836
264.987946
342.336578
136.733833
79.519485
64.517746
90.511810
81.756401
187.537033
64.302059
75.997353
91.439857
47.616405
38.351454
50.107613
155.011337
243.984100
57.468597
32.073725
91.244499
66.750156
83.019684
105.834618
144.218628
84.398499
194.633713
168.231293
299.457092
60.560093
73.120152
199.153854
61.365284
88.913704
204.404068
115.430298
110.708893
109.343384
101.594200
85.705093
203.199875
104.513161
47.775379
44.190041
182.306152
281.112854
165.264328
201.637268
365.292206
495.821350
316.467804
86.518379
315.427002
508.465149
250.180481
113.082848
55.815269
194.818527
95.787041
99.969566
129.340805
96.727966
56.903908
35.820650
21.149279
34.086050
41.547379
20.929429
116.426102
145.455521
62.914326
45.676682
122.918121
74.699821
64.472538
98.051910
37.371367
78.509903
183.085037
75.872253
46.753010
92.549713
40.956776
53.123951
64.958347
26.036102
66.563194
83.079208
13.514147
38.293024
43.226536
92.445526
28.997501
49.428047
137.812393
26.461748
128.325996
33.622938
39.157898
129.013138
91.956482
40.429047
106.355766
55.206627
120.940620
90.118935
95.007271
36.211422
64.646412
60.609543
57.373146
71.113792
86.573685
18.255802
57.711338
34.516287
98.958450
38.100128
38.180449
193.976776
230.088913
198.175430
96.707642
83.644737
77.445770
80.827385
169.127823
249.377243
144.599243
88.718002
92.422516
141.381058
106.189087
360.715027
312.233154
94.999146
172.068893
246.775833
365.679932
342.812469
233.181564
140.673752
174.032074
124.848839
83.526047
52.203987
188.162689
83.814171
32.738152
103.682457
108.510117
53.072395
122.543274
190.749710
126.027496
210.834229
66.210400
116.450066
63.775978
190.372986
50.336281
93.489655
58.534855
67.433338
78.297928
30.899591
40.432465
88.711449
62.015980
78.700233
20.036611
45.662041
62.173599
31.227276
31.909349
24.636669
36.318195
95.176949
90.020210
97.619263
107.160065
177.782532
211.738861
264.203979
133.864258
178.352005
174.722672
90.505974
66.870522
106.885384
93.669983
141.791992
228.187393
52.603359
329.785889
63.328930
36.483299
80.110001
503.448853
374.382355
28.376616
152.211487
45.255985
19.905406
63.962666
40.061327
27.563042
39.888212
41.805210
46.917530
55.056450
75.777367
50.556339
52.566715
55.402046
105.837486
140.615952
154.128067
99.687508
101.490372
94.677048
89.930321
74.256462
66.066090
44.331333
88.585846
100.980591
38.185204
36.509663
67.981796
35.535683
32.108038
59.473930
52.547012
40.476503
148.916763
66.465069
76.132469
35.063663
29.514317
33.236612
48.455723
69.591625
49.522179
73.436172
66.716908
71.182339
35.518829
75.863335
36.887714
30.151453
28.961443
64.344872
167.016068
53.450142
171.094452
60.176983
96.513428
75.268913
54.449844
84.776306
36.222311
63.224056
34.275835
59.846916
49.119167
77.735001
65.079746
59.267853
94.126053
63.641300
76.465309
32.176462
51.249897
38.464001
65.039211
144.416046
87.275536
69.480736
56.989269
36.211994
79.002983
74.092987
42.906425
43.924221
48.914349
90.138107
120.643227
24.432827
84.750046
94.568810
83.246544
53.844330
41.792191
47.649235
64.147076
111.942802
53.100006
107.845268
127.670860
163.003387
234.335052
68.319603
287.521881
131.162300
91.861221
159.920532
135.122871
231.360413
268.977020
248.842010
159.605453
72.746136
233.947861
367.433319
217.230270
87.004959
53.885254
88.188560
48.907238
29.480455
87.171791
110.495064
32.935869
64.398857
77.315308
108.709961
31.072302
39.917486
60.561348
31.245140
98.515221
54.848438
46.224957
41.177099
67.848213
58.329407
32.102232
100.795113
91.415306
132.316010
127.901176
135.583252
37.124413
48.119453
53.020741
83.434769
46.942226
31.821882
43.056675
39.700914
106.367142
58.223679
56.970676
23.920463
40.319876
159.233704
44.486851
86.484337
77.061989
48.327606
24.833631
65.675915
73.898960
60.091919
83.659935
72.213577
64.189285
91.801468
53.497299
45.936924
46.956295
27.088140
35.414457
80.118462
62.309502
34.677883
57.260773
82.555359
74.825470
90.373093
94.293015
82.780113
81.745529
41.340147
58.599125
54.056942
34.518711
88.267120
35.685678
27.684620
18.786835
19.254550
36.182144
45.993855
49.117329
39.153522
118.342659
39.956085
103.378883
52.378796
34.330893
81.387993
97.876343
76.688095
96.617798
69.657722
70.886082
88.709442
84.039268
131.598793
73.224743
36.164215
43.048557
30.615631
24.915527
45.481968
74.986351
107.304329
54.470909
67.802860
81.749413
43.245499
235.343231
61.144802
126.345665
115.355049
34.369957
110.072044
71.379726
66.153950

