# vtk DataFile Version 3.1
Tetrahedral Mesh Visualization
ASCII
DATASET UNSTRUCTURED_GRID

POINTS 277 FLOAT
0.000000 1.378113 1.754166
0.000000 0.000000 0.000000
2.000576 -0.015342 0.017830
0.000000 1.666667 0.000000
2.423172 -0.014672 1.754013
0.000000 0.000000 1.666667
1.692738 2.454859 0.011139
2.997812 2.439705 2.343090
3.989673 4.987316 0.017624
3.070381 4.985084 1.660017
5.194145 4.990300 1.640319
3.479951 3.160596 0.013193
5.388542 3.292006 0.025478
5.971634 4.994970 0.027875
7.334169 3.323814 0.014862
6.945157 4.996460 1.349959
9.244961 2.183569 2.015948
8.665092 5.005107 1.613965
9.306627 3.351955 -0.015694
10.629884 5.013693 1.626906
11.295919 3.357865 -0.049688
11.095808 1.881256 1.510128
10.644937 1.687287 -0.039988
12.636729 1.690225 -0.074867
13.288984 3.359228 -0.086029
12.954090 1.895660 1.415563
14.634700 1.702474 -0.105909
13.975996 0.032254 -0.103884
15.451189 2.171973 1.572652
15.325864 0.025341 1.538232
13.329787 0.022409 1.573068
17.281710 0.028458 1.435731
16.621326 1.697148 -0.147329
17.951607 0.038134 -0.196485
15.960353 0.023436 -0.136603
18.619608 1.710824 -0.203817
18.980925 0.029490 1.093150
19.942245 0.046513 -0.262084
16.760859 0.018383 3.140846
19.029930 0.017262 2.884305
17.713284 2.703290 2.786404
18.065519 0.006976 4.799693
16.735264 1.671144 4.850310
16.056068 0.011206 4.852871
14.703775 0.016177 3.215777
15.784927 2.897358 3.233087
18.793051 1.700450 4.795491
17.360987 3.342498 4.852421
19.336664 3.392054 4.802846
19.340050 5.010593 3.145431
21.048861 3.680043 4.752264
21.341217 5.011760 3.085984
19.624113 2.516798 2.136867
20.628698 5.035229 1.442003
21.912954 2.541921 2.172661
22.626638 5.052735 1.377009
23.221685 3.476710 -0.328996
23.967234 2.513808 1.929059
24.937454 3.781485 -0.372686
24.945753 1.995499 -0.403977
25.967348 2.586436 1.315017
27.201447 1.813813 -0.458604
26.651951 3.505518 -0.422257
29.233883 0.081938 1.097915
27.933800 0.112606 -0.493432
29.246597 1.780723 -0.497759
30.937128 0.080491 0.781245
31.920576 0.095813 -0.563921
31.242277 1.765146 -0.521786
29.930565 0.102454 -0.524982
33.204998 1.731102 -0.563950
33.913425 0.072472 -0.608399
32.633179 0.062967 1.037583
34.549503 0.046654 1.061606
34.983311 2.433335 1.943457
36.461735 0.026521 1.135295
35.135750 0.015324 2.745515
36.828247 -0.003313 2.851131
38.336960 2.499163 4.321569
37.668312 2.175604 1.515065
38.277710 0.004198 1.816149
37.919304 0.041950 -0.705150
38.023235 -0.031712 4.279041
36.032616 -0.012055 4.334116
36.599918 1.730561 4.346106
34.972839 1.326076 4.387908
34.902958 3.129407 4.413816
36.811703 3.468742 4.361843
34.070324 5.001186 4.459765
32.746140 3.309840 4.474961
33.296444 5.029550 2.830016
32.063000 5.012546 4.510349
35.184582 5.016742 2.821379
32.195007 2.652102 1.908704
34.583836 5.042626 1.141882
32.580357 3.408809 -0.521231
33.201889 0.031915 2.727092
30.973783 0.058491 2.579467
31.351759 1.684759 4.488791
33.287930 1.608617 4.436051
30.711374 3.356432 4.511969
28.711742 3.375206 4.542854
29.367500 1.703973 4.515460
30.010860 2.566406 1.984367
27.957514 2.565184 2.016267
26.712603 3.380989 4.580694
27.374392 1.716517 4.546887
24.637033 5.072398 1.320555
21.915001 5.061457 -0.267461
21.262964 3.397973 -0.265802
22.678450 1.779814 -0.344208
19.924414 5.050860 -0.209587
19.272966 3.382650 -0.208517
18.630558 5.020654 1.496295
17.927818 5.031666 -0.155573
17.277672 3.363185 -0.148858
15.942219 5.035170 -0.119363
16.629826 5.023550 1.541199
14.625466 5.020988 1.565916
13.696727 2.973801 3.184119
13.036394 1.328387 4.922973
12.690999 0.013848 3.255800
14.048182 0.007348 4.899142
11.311216 1.626209 4.949237
10.683931 0.009940 3.292753
12.044686 0.016637 4.939129
10.041075 0.013383 4.970256
11.325485 0.016509 1.612518
9.308483 0.008108 1.651261
9.986710 0.013292 -0.035444
8.667498 1.670731 -0.008835
7.951694 5.010579 0.012373
9.947482 5.025810 -0.017233
11.229568 2.654845 3.239385
9.250873 5.007128 3.294441
10.762760 3.319681 4.958826
11.309878 5.010257 3.284874
10.019425 5.003137 4.978899
12.025547 4.998433 4.947808
8.009907 4.991453 5.010957
8.757613 3.392330 4.990574
6.955443 4.985303 3.140655
5.364730 3.356114 5.023419
6.000066 4.984302 5.030892
7.043516 3.669853 5.019381
5.138196 2.359277 3.164289
4.614294 4.991901 3.322311
3.487988 3.188102 5.025249
3.998683 4.996439 5.028894
2.368704 4.990332 3.291666
4.833866 1.591235 0.024669
4.907964 -0.016076 1.902788
6.711927 1.639519 0.011420
7.003091 2.549758 2.211029
8.672922 0.001823 3.332024
17.336330 5.007238 3.194892
15.325827 5.007042 3.224051
16.030226 5.005095 4.873064
14.751673 1.617211 4.891515
15.302925 3.306382 4.886459
11.980202 0.020441 -0.069198
15.286952 3.371340 -0.114040
13.939721 5.029302 -0.091363
12.627640 5.018297 1.596323
13.323462 5.012727 3.254923
7.243359 -0.006425 1.704978
6.683462 -0.007206 3.398920
4.920852 1.640817 5.018881
6.019120 -0.000923 5.018122
4.922271 -0.008831 3.683335
4.010658 0.001294 5.023808
7.071386 1.879140 5.014318
8.032090 -0.003463 4.997091
9.305872 1.697680 4.976912
21.060505 1.890231 4.718447
22.758938 3.405620 4.685896
24.048357 5.022446 4.670680
24.714756 3.373077 4.631909
23.340542 5.036088 3.018719
27.345072 5.057652 2.917182
26.641447 5.082620 1.266741
25.344152 5.051226 2.970824
35.086624 1.664150 -0.618999
36.762741 1.495938 -0.668098
40.013634 3.237878 2.925331
39.985229 1.631196 1.888955
38.310875 5.009029 1.883002
39.981613 3.257877 1.201661
40.020115 4.994950 2.654833
38.055080 4.987632 4.355819
40.056664 4.977664 4.317926
40.036869 3.313216 4.304201
40.032757 1.643124 4.293387
39.994030 0.000726 2.601976
39.958248 0.014324 0.934565
39.929111 0.032001 -0.728210
39.939938 1.696544 -0.703846
39.943943 3.360382 -0.693720
38.247223 2.499788 -0.673633
37.956963 5.038245 -0.637411
39.991112 5.009834 0.991593
36.866486 5.009546 2.921390
36.501995 5.018071 1.201719
36.454567 3.216463 -0.637475
35.951626 5.040919 -0.604500
34.539974 3.364515 -0.572475
33.956345 5.064611 -0.540228
30.598373 3.438561 -0.487738
29.957033 5.106657 -0.453278
31.960466 5.092515 -0.481055
30.638536 5.074719 1.205995
28.607162 3.455008 -0.465582
26.739346 0.063314 2.924713
27.236391 0.084116 1.213023
25.371054 1.715717 4.596883
24.069786 0.028725 4.599427
26.054617 0.041155 4.560222
25.033463 0.052463 3.252740
23.326569 1.720604 4.640386
23.308575 0.042204 2.995861
21.297337 0.019892 2.992451
22.079268 0.009488 4.654552
20.074919 -0.000189 4.731330
18.045658 5.000922 4.839846
20.052767 4.995723 4.794673
22.724276 0.062081 1.316791
24.990747 0.079625 1.456776
23.951319 0.095376 -0.405277
25.943945 0.106599 -0.458073
25.938559 5.100627 -0.383637
25.723036 2.293852 3.076511
28.644659 5.082637 1.226930
27.950645 5.110576 -0.427048
26.053617 5.043150 4.616715
11.946086 5.022973 -0.062477
13.031312 3.116074 4.928524
14.025064 5.000507 4.914818
22.052643 5.006138 4.727480
28.736210 0.058807 2.808149
29.341455 5.058847 2.885609
30.051300 5.033957 4.542512
31.331224 5.042706 2.866020
32.031677 0.025441 4.447559
34.031178 -0.001903 4.392476
36.069374 4.992362 4.401627
32.619850 5.052855 1.172164
20.623768 1.724681 -0.265445
20.710503 0.034746 1.318856
23.924767 5.088025 -0.320563
28.050585 5.042676 4.572800
39.955578 5.022230 -0.676640
3.187754 1.464507 5.024122
0.000000 3.103853 1.750106
0.000000 5.000000 1.666667
0.000000 3.333333 0.000000
2.000202 4.986992 0.005498
0.000000 5.000000 0.000000
0.000000 5.000000 3.333333
0.000000 0.000000 3.333333
1.700996 2.467671 5.009847
3.042633 -0.007375 3.414701
2.000121 -0.000022 5.015245
0.000000 2.403264 3.370902
0.000000 1.666667 5.000000
0.000000 3.333333 5.000000
0.000000 0.000000 5.000000
28.040363 0.048620 4.520258
30.030508 0.036111 4.485356
35.907555 0.048190 -0.667823
40.018459 -0.032127 4.262226
7.994299 -0.001169 0.000151
1.998601 4.993348 5.011350
3.159243 1.434189 0.019580
4.005923 -0.018019 0.020953
21.946852 0.071767 -0.342525
0.000000 5.000000 5.000000
5.995600 -0.017004 0.018202

CELLS 734 3670
4 0 1 2 3
4 0 4 2 5
4 0 3 2 6
4 4 6 0 2
4 4 6 7 0
4 8 9 10 11
4 12 13 14 15
4 16 17 14 18
4 19 20 18 21
4 20 22 21 23
4 24 25 26 23
4 25 27 26 23
4 26 28 29 30
4 28 29 31 32
4 33 34 32 31
4 31 33 35 32
4 31 33 36 35
4 33 37 36 35
4 38 39 40 31
4 41 42 43 38
4 44 42 45 38
4 44 42 38 43
4 46 38 42 41
4 46 47 40 48
4 49 50 51 52
4 53 54 51 55
4 56 54 55 57
4 56 58 59 57
4 60 59 61 62
4 63 61 64 65
4 66 67 68 69
4 67 70 71 72
4 73 74 75 76
4 74 77 75 76
4 77 78 79 80
4 79 81 75 80
4 77 78 80 82
4 77 83 76 84
4 83 85 76 84
4 85 86 74 84
4 74 86 87 84
4 88 89 86 90
4 91 89 88 90
4 86 88 90 92
4 90 86 92 74
4 86 89 74 90
4 93 94 95 74
4 70 74 72 93
4 70 73 71 72
4 74 96 73 72
4 66 97 93 72
4 96 97 72 93
4 96 98 97 93
4 85 96 74 99
4 96 98 93 99
4 98 89 100 93
4 101 102 100 103
4 104 105 101 106
4 107 58 57 60
4 58 107 57 56
4 53 108 109 55
4 56 110 109 54
4 53 111 109 108
4 112 53 109 52
4 111 112 113 53
4 112 111 113 114
4 115 116 114 117
4 40 28 115 117
4 45 117 118 28
4 119 28 25 44
4 120 44 121 122
4 123 121 124 125
4 125 123 126 124
4 127 128 21 124
4 16 129 128 21
4 16 18 14 130
4 16 17 18 19
4 131 17 132 18
4 16 19 18 21
4 133 16 19 134
4 135 134 133 136
4 135 137 136 138
4 137 134 139 140
4 141 142 143 144
4 145 146 147 7
4 142 148 147 146
4 7 146 147 149
4 10 7 9 146
4 145 150 7 151
4 152 151 150 153
4 16 128 154 124
4 124 21 121 133
4 25 28 30 44
4 28 38 45 40
4 45 47 40 42
4 155 45 156 47
4 157 156 47 155
4 155 45 40 117
4 45 42 158 159
4 44 42 43 158
4 119 45 158 159
4 120 44 158 119
4 25 127 21 121
4 25 27 160 30
4 127 25 160 30
4 25 127 121 30
4 44 25 121 30
4 28 30 44 29
4 119 28 44 45
4 119 28 118 25
4 28 24 26 161
4 26 32 29 28
4 28 31 29 38
4 46 38 41 39
4 46 38 39 40
4 28 117 40 45
4 118 28 117 161
4 162 24 118 161
4 118 119 163 164
4 136 119 164 163
4 25 133 21 163
4 128 16 21 124
4 165 166 153 154
4 166 167 168 169
4 167 168 169 170
4 171 168 172 166
4 124 173 126 154
4 123 121 133 124
4 120 125 122 121
4 122 158 44 43
4 47 46 40 42
4 52 50 174 48
4 175 50 174 54
4 176 175 177 178
4 179 60 180 181
4 64 69 63 65
4 68 72 67 66
4 70 73 182 71
4 74 79 183 75
4 184 78 185 79
4 79 184 186 187
4 186 184 188 187
4 184 189 190 191
4 184 78 79 186
4 78 189 184 191
4 189 184 190 188
4 184 78 191 192
4 184 78 192 185
4 192 78 80 185
4 193 80 194 185
4 195 81 196 194
4 81 79 196 194
4 197 187 196 198
4 187 79 185 196
4 79 184 187 185
4 197 199 187 198
4 199 197 187 200
4 199 200 187 186
4 78 201 79 186
4 189 201 87 78
4 202 201 79 74
4 201 74 92 87
4 201 202 92 74
4 201 202 79 186
4 202 203 74 79
4 202 198 203 79
4 204 202 199 203
4 202 203 205 74
4 202 204 205 203
4 182 203 74 205
4 74 203 183 79
4 79 203 183 198
4 79 81 198 183
4 81 79 198 196
4 187 79 196 198
4 202 198 79 186
4 202 204 94 205
4 94 95 205 206
4 207 208 209 210
4 208 207 211 210
4 104 103 211 65
4 104 60 212 213
4 214 215 216 217
4 218 219 220 221
4 222 174 220 221
4 46 39 222 174
4 52 46 40 48
4 40 49 52 48
4 53 49 52 113
4 40 49 155 113
4 155 45 47 40
4 157 47 223 155
4 49 223 224 48
4 52 50 51 54
4 175 54 57 178
4 218 175 54 57
4 225 219 54 57
4 218 175 57 177
4 57 217 219 218
4 219 225 226 57
4 225 227 226 57
4 59 110 57 227
4 59 60 61 228
4 61 60 213 228
4 64 61 213 228
4 63 61 213 64
4 61 104 211 65
4 180 60 104 62
4 58 229 62 180
4 58 60 180 62
4 60 61 104 62
4 60 226 230 212
4 226 60 213 212
4 60 104 212 230
4 179 60 230 104
4 104 211 231 62
4 180 229 62 232
4 180 232 62 231
4 179 60 104 180
4 233 181 105 179
4 181 105 179 230
4 105 214 106 230
4 105 214 230 177
4 215 214 218 217
4 215 217 218 219
4 218 215 219 221
4 218 175 174 54
4 39 52 220 174
4 39 46 52 174
4 115 52 112 35
4 28 115 117 161
4 162 118 116 161
4 24 162 118 163
4 20 19 234 163
4 25 133 163 119
4 120 119 158 235
4 236 119 235 159
4 235 119 158 159
4 119 235 133 136
4 138 235 236 164
4 45 47 42 159
4 46 38 40 42
4 49 50 52 48
4 237 175 176 178
4 181 233 177 176
4 180 179 231 104
4 207 103 65 211
4 207 103 68 65
4 65 66 103 68
4 103 66 97 93
4 66 103 97 63
4 213 104 63 238
4 238 97 103 63
4 104 102 103 238
4 104 106 212 230
4 214 212 106 230
4 214 212 216 106
4 214 212 217 216
4 214 212 230 217
4 226 217 230 212
4 226 60 230 57
4 181 60 57 230
4 179 105 104 230
4 179 105 101 104
4 104 239 103 101
4 239 101 240 100
4 91 241 240 100
4 241 239 240 100
4 239 241 103 100
4 103 210 93 241
4 103 207 93 210
4 210 103 231 239
4 103 239 104 231
4 103 104 63 65
4 65 66 63 103
4 65 66 68 69
4 68 72 66 93
4 96 98 242 97
4 85 96 99 243
4 85 86 99 74
4 86 89 99 74
4 88 86 244 92
4 74 86 92 87
4 201 244 87 92
4 244 86 87 92
4 90 74 92 94
4 94 95 206 245
4 95 209 206 245
4 245 207 95 209
4 208 232 231 211
4 180 104 231 62
4 181 60 107 57
4 54 175 51 178
4 50 52 174 54
4 246 36 52 247
4 246 36 37 35
4 52 31 36 35
4 31 39 52 36
4 39 46 222 41
4 39 222 174 220
4 174 218 220 221
4 218 219 54 220
4 225 219 220 54
4 56 110 54 57
4 110 56 59 57
4 60 59 226 228
4 60 226 213 228
4 57 217 230 226
4 214 217 230 218
4 218 57 230 177
4 181 105 230 177
4 179 60 181 230
4 58 107 180 60
4 229 107 58 248
4 229 107 180 58
4 60 58 59 62
4 58 107 56 248
4 108 56 109 55
4 108 56 55 248
4 107 56 55 57
4 107 181 57 178
4 57 181 177 178
4 181 176 177 178
4 233 181 177 105
4 249 239 101 240
4 91 89 241 100
4 89 91 241 90
4 210 245 93 241
4 245 241 90 93
4 93 94 90 245
4 74 202 92 94
4 205 204 94 206
4 202 198 199 203
4 202 198 186 199
4 199 197 200 250
4 199 186 187 198
4 200 186 188 187
4 184 189 186 188
4 201 189 87 244
4 189 201 78 186
4 201 78 79 87
4 189 78 184 186
4 186 79 187 198
4 74 201 79 87
4 74 79 84 87
4 79 78 84 87
4 77 78 84 79
4 74 77 84 79
4 74 85 84 76
4 83 243 76 85
4 85 96 243 76
4 73 96 74 76
4 96 93 74 99
4 89 93 99 74
4 93 94 74 90
4 93 94 245 95
4 207 95 68 93
4 95 70 68 93
4 95 70 74 205
4 74 70 182 205
4 94 95 74 205
4 241 89 90 93
4 104 179 231 239
4 181 60 180 107
4 107 57 55 178
4 57 54 55 178
4 53 49 51 52
4 40 49 113 52
4 155 47 223 48
4 45 47 159 156
4 119 156 45 159
4 120 44 119 121
4 16 173 124 154
4 166 167 169 145
4 145 7 147 251
4 9 7 252 149
4 253 254 252 255
4 256 253 255 254
4 6 9 252 255
4 253 257 149 252
4 7 258 259 260
4 260 261 251 170
4 169 260 251 170
4 169 251 167 170
4 166 167 145 171
4 16 22 18 130
4 25 24 20 23
4 24 25 118 28
4 119 156 118 45
4 119 28 45 118
4 119 45 44 158
4 44 38 28 29
4 25 28 26 30
4 25 24 26 28
4 24 20 234 163
4 162 24 234 163
4 163 119 118 25
4 235 135 133 136
4 135 134 140 133
4 145 141 153 144
4 145 260 169 151
4 0 258 4 5
4 259 258 262 263
4 264 259 262 263
4 258 7 262 0
4 260 258 259 261
4 258 261 263 259
4 261 258 263 265
4 261 260 251 259
4 167 251 169 145
4 145 260 251 169
4 166 167 171 168
4 16 171 153 140
4 137 135 136 134
4 138 135 235 136
4 235 138 136 164
4 236 119 156 164
4 157 156 159 47
4 155 47 48 40
4 40 49 48 155
4 46 52 174 48
4 247 225 220 54
4 110 225 57 227
4 60 59 57 226
4 104 61 211 62
4 232 211 62 231
4 103 104 211 231
4 239 210 103 241
4 241 93 103 100
4 68 72 93 70
4 103 207 68 93
4 207 103 211 210
4 210 208 231 211
4 103 210 231 211
4 245 207 210 93
4 245 207 209 210
4 245 207 93 95
4 70 95 74 93
4 70 73 74 182
4 182 203 183 74
4 202 74 205 94
4 93 89 90 74
4 89 241 100 93
4 93 98 103 100
4 101 104 102 103
4 104 101 102 106
4 106 238 104 212
4 266 216 212 106
4 106 238 212 266
4 106 238 102 104
4 267 266 238 102
4 97 102 267 238
4 106 238 266 102
4 97 102 238 103
4 97 102 103 98
4 97 102 98 267
4 97 98 242 267
4 96 98 99 242
4 89 98 99 93
4 239 101 100 103
4 104 179 239 101
4 179 249 239 101
4 105 179 101 249
4 233 105 249 179
4 177 181 57 230
4 175 57 177 178
4 175 237 51 178
4 55 54 51 178
4 112 111 109 53
4 112 53 52 113
4 117 115 113 114
4 116 118 117 161
4 115 116 117 161
4 28 115 161 32
4 29 32 26 34
4 26 30 29 27
4 34 26 29 27
4 29 34 31 32
4 31 115 32 35
4 31 115 28 32
4 246 112 52 35
4 246 247 52 54
4 247 110 225 54
4 59 227 57 226
4 213 104 238 212
4 104 103 63 238
4 97 98 103 93
4 70 73 72 74
4 71 182 268 73
4 182 75 268 73
4 182 75 183 268
4 183 81 268 75
4 182 75 74 183
4 79 81 183 75
4 79 81 80 194
4 78 192 80 82
4 192 193 80 82
4 269 193 192 82
4 193 192 80 185
4 80 79 194 185
4 77 74 75 79
4 85 96 76 74
4 96 243 242 99
4 98 102 103 100
4 104 105 106 230
4 214 218 230 177
4 50 175 51 54
4 49 155 223 48
4 157 156 236 159
4 236 119 159 156
4 235 119 164 136
4 236 119 164 235
4 133 235 120 123
4 120 235 133 119
4 135 123 235 133
4 124 173 123 126
4 173 172 126 154
4 166 171 154 172
4 172 171 154 173
4 171 16 154 173
4 171 166 154 153
4 16 171 154 153
4 124 173 16 133
4 124 173 133 123
4 25 133 119 121
4 19 16 133 21
4 163 19 133 21
4 134 19 133 136
4 133 119 136 163
4 133 19 163 136
4 132 20 18 19
4 20 132 234 19
4 20 19 163 21
4 22 20 21 18
4 16 22 21 18
4 128 129 127 21
4 160 129 21 127
4 160 21 25 127
4 25 20 21 23
4 25 27 23 160
4 25 27 30 26
4 23 22 21 160
4 16 129 21 22
4 128 130 165 270
4 128 130 270 129
4 128 130 16 165
4 16 165 153 154
4 17 16 14 153
4 131 17 18 14
4 17 141 153 15
4 12 10 15 153
4 15 17 14 153
4 153 16 14 130
4 16 129 22 130
4 128 130 129 16
4 16 128 165 154
4 151 166 153 165
4 260 145 7 151
4 9 6 252 7
4 7 262 252 149
4 260 259 7 251
4 7 259 147 251
4 264 259 271 149
4 259 7 147 149
4 146 148 147 149
4 271 259 147 149
4 148 271 147 149
4 146 142 143 141
4 144 141 140 139
4 141 134 140 139
4 143 141 144 139
4 142 145 141 146
4 145 142 141 144
4 148 142 143 146
4 145 7 10 146
4 145 150 151 153
4 151 272 150 7
4 151 272 273 150
4 151 272 4 273
4 4 272 2 273
4 151 272 7 4
4 4 260 7 151
4 166 145 151 153
4 166 145 169 151
4 171 166 153 145
4 133 16 140 173
4 124 16 21 133
4 25 21 160 23
4 21 129 160 22
4 121 21 124 127
4 121 120 133 119
4 123 121 125 120
4 123 121 120 133
4 25 133 121 21
4 25 20 163 21
4 118 24 28 161
4 26 28 161 32
4 40 115 28 31
4 115 52 113 112
4 246 112 109 52
4 246 52 109 54
4 56 54 109 55
4 56 107 55 248
4 58 60 59 57
4 63 61 65 104
4 68 72 70 67
4 182 75 73 74
4 77 79 75 80
4 196 79 185 194
4 79 78 185 80
4 77 78 82 84
4 83 77 82 84
4 77 74 84 76
4 96 74 93 72
4 103 66 93 68
4 65 66 69 63
4 63 61 104 213
4 61 60 104 213
4 59 227 226 228
4 274 110 227 225
4 246 36 247 37
4 246 36 35 52
4 52 115 40 31
4 28 31 38 40
4 44 42 158 45
4 120 44 122 158
4 135 133 140 173
4 171 16 173 140
4 171 144 153 140
4 141 144 140 153
4 10 141 15 153
4 10 12 15 13
4 10 8 12 13
4 8 10 12 11
4 8 9 11 255
4 9 253 149 252
4 257 262 149 252
4 262 259 149 7
4 258 7 4 260
4 259 258 7 262
4 262 0 7 252
4 0 6 7 252
4 254 6 252 255
4 0 3 6 252
4 6 3 254 252
4 272 6 11 7
4 4 6 272 7
4 4 6 2 272
4 9 6 11 255
4 9 253 252 255
4 262 264 257 149
4 257 264 275 271
4 259 264 262 149
4 257 264 271 149
4 9 146 7 149
4 10 7 11 9
4 7 12 10 11
4 145 150 153 12
4 12 145 10 153
4 145 146 10 141
4 145 142 147 146
4 171 145 153 144
4 171 142 145 144
4 142 171 145 167
4 142 145 147 167
4 167 145 147 251
4 145 260 7 251
4 145 150 12 7
4 12 145 7 10
4 12 152 153 14
4 152 153 14 130
4 152 151 153 165
4 165 152 276 270
4 152 151 165 276
4 165 152 270 130
4 152 151 276 150
4 276 150 151 273
4 272 7 11 150
4 7 12 11 150
4 153 150 152 12
4 165 16 153 130
4 165 152 130 153
4 15 12 153 14
4 13 131 14 15
4 17 131 15 14
4 17 132 18 19
4 25 24 163 20
4 25 24 118 163
4 119 156 164 118
4 118 117 45 156
4 155 45 117 156
4 113 40 117 155
4 50 49 224 48
4 49 50 224 51
4 50 237 224 51
4 237 50 175 51
4 52 54 220 174
4 52 247 220 54
4 39 247 220 52
4 39 247 52 36
4 115 52 35 31
4 40 115 52 113
4 40 115 113 117
4 115 112 113 114
4 53 52 51 54
4 54 53 109 55
4 52 53 109 54
4 110 246 109 54
4 247 110 54 246
4 247 110 274 225
4 246 274 37 247
4 247 110 246 274
4 110 225 54 57
4 57 217 226 219
4 57 217 218 230
4 219 218 54 57
4 218 54 174 220
4 46 39 52 40
4 39 31 52 40
4 38 42 45 40
4 28 38 44 45
4 121 25 44 119
4 123 135 173 133
4 134 153 140 16
4 134 16 140 133
4 137 135 134 140
4 134 153 141 140
4 134 153 16 17
4 16 17 19 134
4 134 153 17 141
4 153 145 10 141
4 6 9 11 7
4 258 7 0 4
4 1 0 2 5

CELL_TYPES 734
10
10
10
10
10
10
10
10
10
10
10
10
10
10
10
10
10
10
10
10
10
10
10
10
10
10
10
10
10
10
10
10
10
10
10
10
10
10
10
10
10
10
10
10
10
10
10
10
10
10
10
10
10
10
10
10
10
10
10
10
10
10
10
10
10
10
10
10
10
10
10
10
10
10
10
10
10
10
10
10
10
10
10
10
10
10
10
10
10
10
10
10
10
10
10
10
10
10
10
10
10
10
10
10
10
10
10
10
10
10
10
10
10
10
10
10
10
10
10
10
10
10
10
10
10
10
10
10
10
10
10
10
10
10
10
10
10
10
10
10
10
10
10
10
10
10
10
10
10
10
10
10
10
10
10
10
10
10
10
10
10
10
10
10
10
10
10
10
10
10
10
10
10
10
10
10
10
10
10
10
10
10
10
10
10
10
10
10
10
10
10
10
10
10
10
10
10
10
10
10
10
10
10
10
10
10
10
10
10
10
10
10
10
10
10
10
10
10
10
10
10
10
10
10
10
10
10
10
10
10
10
10
10
10
10
10
10
10
10
10
10
10
10
10
10
10
10
10
10
10
10
10
10
10
10
10
10
10
10
10
10
10
10
10
10
10
10
10
10
10
10
10
10
10
10
10
10
10
10
10
10
10
10
10
10
10
10
10
10
10
10
10
10
10
10
10
10
10
10
10
10
10
10
10
10
10
10
10
10
10
10
10
10
10
10
10
10
10
10
10
10
10
10
10
10
10
10
10
10
10
10
10
10
10
10
10
10
10
10
10
10
10
10
10
10
10
10
10
10
10
10
10
10
10
10
10
10
10
10
10
10
10
10
10
10
10
10
10
10
10
10
10
10
10
10
10
10
10
10
10
10
10
10
10
10
10
10
10
10
10
10
10
10
10
10
10
10
10
10
10
10
10
10
10
10
10
10
10
10
10
10
10
10
10
10
10
10
10
10
10
10
10
10
10
10
10
10
10
10
10
10
10
10
10
10
10
10
10
10
10
10
10
10
10
10
10
10
10
10
10
10
10
10
10
10
10
10
10
10
10
10
10
10
10
10
10
10
10
10
10
10
10
10
10
10
10
10
10
10
10
10
10
10
10
10
10
10
10
10
10
10
10
10
10
10
10
10
10
10
10
10
10
10
10
10
10
10
10
10
10
10
10
10
10
10
10
10
10
10
10
10
10
10
10
10
10
10
10
10
10
10
10
10
10
10
10
10
10
10
10
10
10
10
10
10
10
10
10
10
10
10
10
10
10
10
10
10
10
10
10
10
10
10
10
10
10
10
10
10
10
10
10
10
10
10
10
10
10
10
10
10
10
10
10
10
10
10
10
10
10
10
10
10
10
10
10
10
10
10
10
10
10
10
10
10
10
10
10
10
10
10
10
10
10
10
10
10
10
10
10
10
10
10
10
10
10
10
10
10
10
10
10
10
10
10
10
10
10
10
10
10
10
10
10
10
10
10
10
10
10
10
10
10
10
10
10
10
10
10
10
10
10
10
10
10
10
10
10
10
10
10
10
10
10
10
10
10
10
10
10
10
10
10
10
10
10
10
10
10
10
10
10
10
10
10
10
10
10
10
10
10
10
10
10
10
10
10
10
10
10
10
10
10
10
10
10
10
10
10
10
10
10
10
10
10
10
10
10
10
10
10
10
10
10

CELL_DATA 734
SCALARS potentialEnergy FLOAT 1
LOOKUP_TABLE default
90.469299
80.183144
102.960556
119.108253
149.901810
103.647003
86.798859
234.089783
59.333290
66.288685
33.800930
22.628519
34.520342
119.833984
135.398018
66.709312
87.825020
138.518341
172.203445
125.313087
68.009945
138.160095
118.056694
178.649323
79.302147
76.495491
197.618774
152.251663
82.416832
72.443699
114.285469
106.316338
83.688370
43.107922
81.534134
52.569427
127.373703
81.616966
40.779934
73.232418
127.490273
35.536514
121.396942
48.422543
105.410095
74.563217
92.890381
70.046631
18.475285
69.517826
93.163765
47.587681
106.740227
33.845106
115.364281
154.479874
93.424805
60.739456
50.497746
133.141914
17.484961
137.318031
50.007465
79.146469
25.360955
65.287243
181.525116
87.210655
167.391983
20.549109
38.743311
65.182018
46.784828
40.648655
154.659561
114.419212
103.283386
48.004635
63.228100
31.970203
147.733124
56.165161
90.338806
146.704590
149.988449
210.829086
237.437256
242.400009
76.472214
77.638908
225.481979
44.664158
23.087654
121.603127
47.670330
165.533951
83.908058
119.966888
115.062393
133.398926
86.327766
51.808414
27.279396
183.092072
78.972008
40.183949
61.873489
46.987579
126.606628
69.166016
60.268013
266.337402
60.293407
103.533752
210.109589
81.241463
106.812782
47.936848
57.183891
64.237579
25.146957
23.996256
101.345085
45.796200
66.749771
190.387451
46.149532
108.180145
101.608444
74.044632
242.312759
220.326263
176.230026
74.039413
140.252838
52.939251
29.408518
36.057491
188.905945
117.560989
99.148972
27.405851
35.973850
125.454689
161.866837
42.717152
75.626549
123.444962
172.794754
124.549957
159.750427
220.539963
41.420675
74.555862
39.778454
146.004349
26.081623
71.478966
187.323044
144.010895
117.384720
65.469643
142.151016
92.878036
189.230927
55.921059
127.705673
220.723969
126.260963
160.769897
151.597183
110.804016
158.092575
167.629852
94.643913
106.012802
145.736755
91.633575
66.695812
39.524115
110.075493
36.679304
104.430206
115.373390
168.290451
178.238312
99.055977
129.636543
52.347309
68.430492
50.452827
168.821030
49.079407
299.299683
378.824097
238.246979
182.262909
49.564465
86.686310
154.039932
64.017860
144.665100
116.232628
149.843170
94.752632
47.168709
53.715378
138.661835
66.866936
81.076935
79.098030
61.849178
196.564285
34.456148
63.196609
33.037094
125.564697
74.585037
121.455833
46.846428
134.957611
52.205734
67.227684
59.249023
106.179405
133.884956
138.469971
349.326813
290.924866
96.465233
219.627869
86.469658
48.038155
68.783791
54.205521
35.348213
108.320564
52.271370
39.161629
49.998798
107.091705
250.012634
158.916565
67.928993
113.442024
75.321297
202.024261
92.434235
127.589920
217.725937
146.580170
68.018753
178.517487
166.147537
73.919750
55.893047
62.920216
85.794502
112.413055
186.372879
155.393433
71.880661
80.809525
81.816711
93.922432
75.861053
139.205109
89.399391
148.983597
60.153282
86.168213
68.273243
79.668968
136.834244
178.516464
47.777004
60.338589
74.337112
27.323080
217.340622
58.500221
26.697069
127.835403
32.547220
31.541801
93.206650
97.014633
179.855469
128.620872
80.470230
91.906189
33.877853
258.840958
210.037369
220.900803
104.566124
156.855850
85.434334
230.207687
205.033447
72.195210
220.958939
147.510223
126.021469
73.156437
29.022696
153.589737
213.497070
186.949356
29.284121
95.938629
85.413635
51.400002
114.179314
52.000378
110.121780
69.675152
50.496273
142.089661
207.347931
80.773132
117.867905
75.721985
63.217991
37.642092
104.669708
26.163982
74.213257
118.672058
80.177872
165.413620
139.755997
147.070999
93.419273
141.513702
68.719860
60.402195
31.808825
101.508911
48.798557
159.775055
117.930954
66.366261
104.567436
99.961586
92.814972
83.950104
155.436523
116.314972
37.951609
31.799339
97.322533
99.233772
33.311220
84.801308
92.792175
88.961479
210.317169
119.770393
127.598206
67.648674
107.120300
80.919449
231.125961
169.708191
162.011932
52.052692
90.644592
65.236748
100.035995
174.074799
42.413971
81.219452
70.521034
71.796669
186.672745
41.789688
36.764605
98.081299
49.506840
319.864716
92.323257
48.974728
43.843254
188.938736
135.747154
67.430016
69.686405
162.475967
152.670822
72.392941
98.399559
38.934008
107.135674
59.756050
43.252243
72.605244
230.109665
80.208290
104.445488
113.004288
97.359520
85.936226
62.292252
95.375900
81.702263
72.536930
40.888681
68.597691
89.147598
75.878906
158.124817
134.356987
48.796337
70.108109
58.537422
58.017799
128.431374
120.120964
112.781860
282.667114
222.199310
83.206451
98.181953
24.026339
32.559702
155.777618
163.569061
197.383041
54.341610
84.146103
135.984154
44.566647
131.017059
124.952217
138.288345
141.571274
62.429035
159.495178
99.054779
254.509583
60.870502
129.816498
124.245369
160.136627
87.719902
102.577538
162.197678
76.932320
131.234009
85.016991
78.711418
99.414040
185.616348
114.239929
54.832535
18.009027
72.926743
98.248215
159.491089
132.777817
26.537294
29.721304
45.273682
66.647739
138.949249
129.358261
99.489944
38.207191
66.905449
266.121307
84.599922
133.413872
176.921661
142.626678
75.779594
162.337219
193.666565
130.561996
120.177757
97.944138
189.427170
400.646179
72.460793
104.143631
160.605103
122.635635
48.467445
71.358738
45.293354
37.708330
104.576805
101.021767
95.652161
144.093628
341.538818
212.753922
133.447334
151.594360
68.967220
45.119507
65.236027
118.154648
125.766388
43.148827
126.004074
259.348267
44.712643
49.912022
65.199432
45.992455
37.955400
62.989273
81.813736
77.674095
47.929390
120.319351
42.183231
94.207634
105.881050
68.233093
85.364395
110.253708
85.639259
45.116043
23.283352
54.786465
30.027466
84.575966
63.164494
53.469189
94.921432
66.695328
67.254814
62.353905
129.199272
108.466095
70.626133
155.563278
76.300079
37.968506
64.876797
61.528149
111.733932
119.312607
73.248055
28.248436
150.100449
72.766354
125.159111
87.731819
75.857346
75.676353
180.405991
75.431892
30.977386
69.711918
53.793941
146.983170
98.229301
107.483559
105.412071
50.777893
152.295578
176.383331
95.180550
78.620079
57.401379
90.005386
95.767952
72.766953
143.188675
88.044930
92.399460
117.145531
66.291050
62.883595
42.134346
45.176781
71.816311
38.891136
139.610565
61.553452
75.886635
88.249252
119.592484
25.183809
58.901783
67.203804
48.092228
45.448856
92.718513
66.081287
24.423434
71.396255
56.383675
184.436417
121.351814
161.303741
72.801529
112.072083
174.220856
94.091141
48.334560
74.516449
33.094276
144.759995
89.688049
113.871071
221.651031
203.337875
75.057846
110.028336
87.903618
121.128685
72.774128
181.317245
82.547562
74.839546
125.510208
108.597534
156.270844
269.371002
50.388916
383.617096
31.951212
55.794319
143.191864
123.455429
131.860100
89.308975
37.380533
268.051849
101.616722
105.413483
125.473068
62.285789
148.928024
224.055023
153.146423
72.013042
99.646156
86.569702
60.368992
58.550995
86.531693
115.069672
98.561752
99.314140
67.929943
63.321079
45.321239
86.120201
64.315632
177.920593
229.561569
150.034180
67.003876
51.811951
57.151199
200.195084
138.808441
131.771988
145.331284
119.757187
65.310894
175.193695
121.592628
102.561256
121.610649
60.920715
192.612747
52.320965
71.461246
54.993279
75.465378
90.518822
45.243362
98.364037
71.117924
70.204933
116.446144
221.722763
169.234238
147.658997
33.713068
87.379112
62.705780
66.339699
87.426865
162.959183
101.782883
41.849176
31.098515
73.012974
118.001579
202.389526
89.530685
143.394958
176.236694
319.420044
196.905716
84.069901
119.078079
118.143394
89.776970
129.831772
236.089890
383.083588
229.623383
208.190674
232.412399
254.729935
81.997704
43.902996
298.962402
166.913635
108.362129
99.215073
62.641846
99.306587
47.934963
32.323547
191.902267
136.418655
48.431820
150.003738
37.227303
19.495385
50.387314
75.110886
178.487350
121.448143
73.218521

