# vtk DataFile Version 3.1
Tetrahedral Mesh Visualization
ASCII
DATASET UNSTRUCTURED_GRID

POINTS 277 FLOAT
0.000000 1.378113 1.754166
0.000000 0.000000 0.000000
2.000710 0.023500 0.003794
0.000000 1.666667 0.000000
2.422218 0.012096 1.736663
0.000000 0.000000 1.666667
1.698593 2.483094 0.001411
2.997462 2.467537 2.328076
4.010839 5.011181 0.024996
3.078986 5.013727 1.662550
5.222043 5.010741 1.637589
3.505433 3.194607 0.022099
5.432169 3.315811 0.034562
6.029144 5.001774 0.041099
7.406699 3.352746 0.074431
6.991157 5.012505 1.383755
9.255008 2.190707 2.145594
8.717692 5.015237 1.720724
9.391359 3.348809 0.123851
10.684109 4.998855 1.821457
11.389263 3.338473 0.174221
11.124005 1.869993 1.720726
10.716963 1.678216 0.152355
12.721238 1.679615 0.201560
13.392032 3.336116 0.225679
12.988728 1.879821 1.707974
14.719803 1.671611 0.252067
14.045213 0.015642 0.226424
15.484937 2.136669 1.965238
15.345581 -0.000669 1.921178
13.344349 0.008779 1.879957
17.310469 0.000317 1.924058
16.720415 1.665664 0.306140
18.057545 0.007076 0.337184
16.050507 0.001326 0.280885
18.730499 1.673855 0.352833
19.033600 0.008361 1.681018
20.059031 0.019658 0.379271
16.710667 -0.008916 3.602595
18.988251 0.001685 3.472646
17.695181 2.671470 3.285756
17.941383 -0.003541 5.335516
16.621138 1.645518 5.309196
15.934119 -0.018575 5.277006
14.654989 -0.005134 3.576902
15.753314 2.871285 3.642238
18.674877 1.690626 5.362932
17.254135 3.316294 5.332051
19.222887 3.387477 5.375570
19.302317 4.999301 3.710394
20.932339 3.699197 5.401346
21.307501 5.016578 3.741906
19.629898 2.493561 2.737288
20.676117 5.009962 2.068313
21.913786 2.528887 2.890452
22.681601 5.024039 2.103046
23.346989 3.420583 0.448662
23.972073 2.467236 2.760713
25.063055 3.715453 0.489588
25.062857 1.929459 0.484128
26.004204 2.526264 2.232496
27.329824 1.725022 0.534200
26.782089 3.422801 0.522319
29.283901 -0.003210 2.184904
28.060158 0.018814 0.543936
29.380753 1.682664 0.587467
31.009094 -0.001358 1.933828
32.061016 0.011303 0.636743
31.378918 1.679425 0.635991
30.065674 0.013160 0.591597
33.344086 1.659040 0.682891
34.051590 0.001528 0.669421
32.689480 -0.005568 2.263792
34.589115 -0.027796 2.376032
34.980156 2.372258 3.274817
36.484447 -0.054630 2.570302
35.073097 -0.057195 4.096842
36.747524 -0.083251 4.303363
38.195599 2.394201 5.846431
37.679958 2.089357 3.012841
38.245701 -0.105300 3.341055
38.028633 -0.057910 0.801359
37.854675 -0.120094 5.804499
35.875355 -0.091739 5.738884
36.454098 1.653212 5.778008
34.833923 1.266754 5.725969
34.764179 3.072411 5.741260
36.671772 3.387719 5.809908
33.932278 4.949501 5.732279
32.615501 3.260259 5.684365
33.255291 4.974012 4.063507
31.933023 4.957613 5.688762
35.142212 4.949676 4.159482
32.199360 2.590372 3.095226
34.635704 4.976007 2.445611
32.710949 3.336749 0.682192
33.159370 -0.029064 3.977255
30.951466 -0.025802 3.723927
31.229830 1.624014 5.634369
33.158619 1.556544 5.680947
30.587336 3.296205 5.638845
28.585794 3.314573 5.576828
29.242697 1.639761 5.581210
30.016039 2.484563 3.087912
27.957888 2.495813 3.031005
26.587271 3.333912 5.513653
27.244164 1.659137 5.524808
24.681438 5.017967 2.148348
22.051514 5.026993 0.424011
21.387245 3.370019 0.409206
22.793695 1.729644 0.431592
20.047718 5.014856 0.391218
19.390200 3.342242 0.373572
18.678339 4.994848 2.030279
18.053730 5.002121 0.344893
17.391079 3.331607 0.325138
16.064865 5.000010 0.301928
16.686644 4.986951 1.986857
14.687086 4.988149 1.931883
13.673477 2.951466 3.508271
12.930782 1.314986 5.217028
12.639575 0.003427 3.532631
13.926867 -0.005353 5.239183
11.209799 1.606115 5.171045
10.629436 -0.000518 3.476666
11.928966 -0.006046 5.180684
9.932633 -0.007975 5.125472
11.338771 0.010754 1.827117
9.314585 0.016040 1.779342
10.041646 0.015683 0.127259
8.727421 1.685222 0.097325
8.051772 5.021392 0.093681
10.062582 5.008909 0.147699
11.196427 2.637385 3.457582
9.237738 5.007203 3.425615
10.682064 3.305063 5.161491
11.292835 4.991298 3.507861
9.946272 4.998301 5.143546
11.940809 4.990091 5.200115
7.952258 5.013762 5.083564
8.690470 3.392727 5.107673
6.955089 5.022652 3.168037
5.328526 3.382225 5.041642
5.967292 5.024405 5.040254
6.988845 3.694897 5.059064
5.129337 2.381396 3.170209
4.619181 5.013255 3.310190
3.473729 3.200984 5.014239
3.982138 5.017445 5.015030
2.368352 5.009536 3.292504
4.866993 1.616117 0.031455
4.910451 0.007746 1.903858
6.757333 1.682721 0.057527
7.012893 2.583251 2.254040
8.624825 0.002289 3.431534
17.307486 4.982343 3.671968
15.304690 4.983608 3.616545
15.934139 4.983191 5.295893
14.648186 1.592142 5.260932
15.205847 3.282701 5.278488
12.044700 0.019541 0.174607
15.394018 3.331611 0.274337
14.068301 4.992918 0.244201
12.684289 4.994847 1.882476
13.304016 4.994912 3.564059
7.248670 0.024232 1.751578
6.646812 0.001300 3.427188
4.878605 1.652262 5.038936
5.959160 -0.001578 5.048641
4.897071 0.005750 3.692784
3.974116 0.003890 5.026155
6.996647 1.894986 5.052709
7.936355 0.002426 5.078419
9.212535 1.687076 5.115410
20.941681 1.908841 5.404658
22.641392 3.400695 5.436599
23.937963 5.011363 5.459546
24.595686 3.349940 5.473252
23.303789 5.017801 3.783733
27.308968 5.002414 3.872230
26.693598 5.016263 2.190447
25.306570 5.013959 3.823026
35.225208 1.600737 0.731536
36.894722 1.422678 0.786467
39.957623 3.092299 4.539069
39.958179 1.484452 3.489206
38.322609 4.906112 3.415329
40.010929 3.120000 2.816414
39.990200 4.854720 4.269547
37.938232 4.884665 5.863972
39.941711 4.837166 5.924321
39.913837 3.169549 5.911951
39.875362 1.495159 5.894512
39.898514 -0.163647 4.200511
39.963634 -0.135057 2.534923
40.024254 -0.118577 0.872322
40.054031 1.555224 0.898159
40.090427 3.225919 0.930514
38.376678 2.402004 0.852387
38.120857 4.941428 0.882118
40.048740 4.879008 2.612901
36.819397 4.926053 4.375851
36.554440 4.954186 2.639535
36.593708 3.155478 0.797818
36.108658 4.978690 0.805833
34.677307 3.302687 0.738675
34.091446 4.995154 0.735958
30.725288 3.347303 0.633512
30.085569 5.014657 0.635609
32.084320 5.010685 0.690650
30.689751 4.994583 2.322844
28.739859 3.358784 0.578521
26.687237 0.000739 3.888769
27.275087 0.007735 2.209906
25.244184 1.676737 5.480320
23.938068 0.001555 5.454007
25.924030 -0.001638 5.493466
24.964838 0.007773 4.146887
23.200302 1.703694 5.444694
23.251753 0.010782 3.822119
21.247498 0.022218 3.709761
21.943157 0.007949 5.412965
19.954439 0.014366 5.382768
17.933361 4.983933 5.354712
19.931112 5.009894 5.384200
22.755798 0.018639 2.113450
25.010265 0.020783 2.354523
24.061785 0.039426 0.447654
26.058260 0.027140 0.495090
26.068441 5.032547 0.520802
25.670223 2.245829 3.974749
28.698107 5.001653 2.253965
28.085823 5.023179 0.573565
25.932968 4.999468 5.508177
12.063216 5.003573 0.202021
12.938716 3.102854 5.219507
13.939618 4.985250 5.250466
21.938185 5.012844 5.419902
28.694263 -0.013213 3.863754
29.308794 4.983743 3.939573
29.928341 4.970376 5.629749
31.292667 4.980810 4.008889
31.910381 -0.035107 5.640431
33.897232 -0.060613 5.690202
35.931087 4.920929 5.793375
32.673870 4.986018 2.372725
20.743418 1.695795 0.396236
20.750973 0.017047 2.003342
24.056305 5.028038 0.470630
27.932161 4.990781 5.556495
40.119564 4.905349 0.961625
3.169048 1.468185 5.008065
0.000000 3.103853 1.750106
0.000000 5.000000 1.666667
0.000000 3.333333 0.000000
2.001736 5.010230 0.012619
0.000000 5.000000 0.000000
0.000000 5.000000 3.333333
0.000000 0.000000 3.333333
1.693063 2.468651 5.003360
3.030985 0.004460 3.392508
1.996632 -0.009623 5.000905
0.000000 2.403264 3.370902
0.000000 1.666667 5.000000
0.000000 3.333333 5.000000
0.000000 0.000000 5.000000
27.911924 -0.019186 5.531836
29.912962 -0.028965 5.584284
36.037594 -0.023368 0.732890
39.835880 -0.175862 5.873003
8.036117 0.026401 0.076711
1.990697 5.006786 5.014482
3.175827 1.473452 0.015363
4.013301 0.021148 0.019445
22.061789 0.032766 0.406102
0.000000 5.000000 5.000000
6.032982 0.029153 0.039228

CELLS 734 3670
4 0 1 2 3
4 0 4 2 5
4 0 3 2 6
4 4 6 0 2
4 4 6 7 0
4 8 9 10 11
4 12 13 14 15
4 16 17 14 18
4 19 20 18 21
4 20 22 21 23
4 24 25 26 23
4 25 27 26 23
4 26 28 29 30
4 28 29 31 32
4 33 34 32 31
4 31 33 35 32
4 31 33 36 35
4 33 37 36 35
4 38 39 40 31
4 41 42 43 38
4 44 42 45 38
4 44 42 38 43
4 46 38 42 41
4 46 47 40 48
4 49 50 51 52
4 53 54 51 55
4 56 54 55 57
4 56 58 59 57
4 60 59 61 62
4 63 61 64 65
4 66 67 68 69
4 67 70 71 72
4 73 74 75 76
4 74 77 75 76
4 77 78 79 80
4 79 81 75 80
4 77 78 80 82
4 77 83 76 84
4 83 85 76 84
4 85 86 74 84
4 74 86 87 84
4 88 89 86 90
4 91 89 88 90
4 86 88 90 92
4 90 86 92 74
4 86 89 74 90
4 93 94 95 74
4 70 74 72 93
4 70 73 71 72
4 74 96 73 72
4 66 97 93 72
4 96 97 72 93
4 96 98 97 93
4 85 96 74 99
4 96 98 93 99
4 98 89 100 93
4 101 102 100 103
4 104 105 101 106
4 107 58 57 60
4 58 107 57 56
4 53 108 109 55
4 56 110 109 54
4 53 111 109 108
4 112 53 109 52
4 111 112 113 53
4 112 111 113 114
4 115 116 114 117
4 40 28 115 117
4 45 117 118 28
4 119 28 25 44
4 120 44 121 122
4 123 121 124 125
4 125 123 126 124
4 127 128 21 124
4 16 129 128 21
4 16 18 14 130
4 16 17 18 19
4 131 17 132 18
4 16 19 18 21
4 133 16 19 134
4 135 134 133 136
4 135 137 136 138
4 137 134 139 140
4 141 142 143 144
4 145 146 147 7
4 142 148 147 146
4 7 146 147 149
4 10 7 9 146
4 145 150 7 151
4 152 151 150 153
4 16 128 154 124
4 124 21 121 133
4 25 28 30 44
4 28 38 45 40
4 45 47 40 42
4 155 45 156 47
4 157 156 47 155
4 155 45 40 117
4 45 42 158 159
4 44 42 43 158
4 119 45 158 159
4 120 44 158 119
4 25 127 21 121
4 25 27 160 30
4 127 25 160 30
4 25 127 121 30
4 44 25 121 30
4 28 30 44 29
4 119 28 44 45
4 119 28 118 25
4 28 24 26 161
4 26 32 29 28
4 28 31 29 38
4 46 38 41 39
4 46 38 39 40
4 28 117 40 45
4 118 28 117 161
4 162 24 118 161
4 118 119 163 164
4 136 119 164 163
4 25 133 21 163
4 128 16 21 124
4 165 166 153 154
4 166 167 168 169
4 167 168 169 170
4 171 168 172 166
4 124 173 126 154
4 123 121 133 124
4 120 125 122 121
4 122 158 44 43
4 47 46 40 42
4 52 50 174 48
4 175 50 174 54
4 176 175 177 178
4 179 60 180 181
4 64 69 63 65
4 68 72 67 66
4 70 73 182 71
4 74 79 183 75
4 184 78 185 79
4 79 184 186 187
4 186 184 188 187
4 184 189 190 191
4 184 78 79 186
4 78 189 184 191
4 189 184 190 188
4 184 78 191 192
4 184 78 192 185
4 192 78 80 185
4 193 80 194 185
4 195 81 196 194
4 81 79 196 194
4 197 187 196 198
4 187 79 185 196
4 79 184 187 185
4 197 199 187 198
4 199 197 187 200
4 199 200 187 186
4 78 201 79 186
4 189 201 87 78
4 202 201 79 74
4 201 74 92 87
4 201 202 92 74
4 201 202 79 186
4 202 203 74 79
4 202 198 203 79
4 204 202 199 203
4 202 203 205 74
4 202 204 205 203
4 182 203 74 205
4 74 203 183 79
4 79 203 183 198
4 79 81 198 183
4 81 79 198 196
4 187 79 196 198
4 202 198 79 186
4 202 204 94 205
4 94 95 205 206
4 207 208 209 210
4 208 207 211 210
4 104 103 211 65
4 104 60 212 213
4 214 215 216 217
4 218 219 220 221
4 222 174 220 221
4 46 39 222 174
4 52 46 40 48
4 40 49 52 48
4 53 49 52 113
4 40 49 155 113
4 155 45 47 40
4 157 47 223 155
4 49 223 224 48
4 52 50 51 54
4 175 54 57 178
4 218 175 54 57
4 225 219 54 57
4 218 175 57 177
4 57 217 219 218
4 219 225 226 57
4 225 227 226 57
4 59 110 57 227
4 59 60 61 228
4 61 60 213 228
4 64 61 213 228
4 63 61 213 64
4 61 104 211 65
4 180 60 104 62
4 58 229 62 180
4 58 60 180 62
4 60 61 104 62
4 60 226 230 212
4 226 60 213 212
4 60 104 212 230
4 179 60 230 104
4 104 211 231 62
4 180 229 62 232
4 180 232 62 231
4 179 60 104 180
4 233 181 105 179
4 181 105 179 230
4 105 214 106 230
4 105 214 230 177
4 215 214 218 217
4 215 217 218 219
4 218 215 219 221
4 218 175 174 54
4 39 52 220 174
4 39 46 52 174
4 115 52 112 35
4 28 115 117 161
4 162 118 116 161
4 24 162 118 163
4 20 19 234 163
4 25 133 163 119
4 120 119 158 235
4 236 119 235 159
4 235 119 158 159
4 119 235 133 136
4 138 235 236 164
4 45 47 42 159
4 46 38 40 42
4 49 50 52 48
4 237 175 176 178
4 181 233 177 176
4 180 179 231 104
4 207 103 65 211
4 207 103 68 65
4 65 66 103 68
4 103 66 97 93
4 66 103 97 63
4 213 104 63 238
4 238 97 103 63
4 104 102 103 238
4 104 106 212 230
4 214 212 106 230
4 214 212 216 106
4 214 212 217 216
4 214 212 230 217
4 226 217 230 212
4 226 60 230 57
4 181 60 57 230
4 179 105 104 230
4 179 105 101 104
4 104 239 103 101
4 239 101 240 100
4 91 241 240 100
4 241 239 240 100
4 239 241 103 100
4 103 210 93 241
4 103 207 93 210
4 210 103 231 239
4 103 239 104 231
4 103 104 63 65
4 65 66 63 103
4 65 66 68 69
4 68 72 66 93
4 96 98 242 97
4 85 96 99 243
4 85 86 99 74
4 86 89 99 74
4 88 86 244 92
4 74 86 92 87
4 201 244 87 92
4 244 86 87 92
4 90 74 92 94
4 94 95 206 245
4 95 209 206 245
4 245 207 95 209
4 208 232 231 211
4 180 104 231 62
4 181 60 107 57
4 54 175 51 178
4 50 52 174 54
4 246 36 52 247
4 246 36 37 35
4 52 31 36 35
4 31 39 52 36
4 39 46 222 41
4 39 222 174 220
4 174 218 220 221
4 218 219 54 220
4 225 219 220 54
4 56 110 54 57
4 110 56 59 57
4 60 59 226 228
4 60 226 213 228
4 57 217 230 226
4 214 217 230 218
4 218 57 230 177
4 181 105 230 177
4 179 60 181 230
4 58 107 180 60
4 229 107 58 248
4 229 107 180 58
4 60 58 59 62
4 58 107 56 248
4 108 56 109 55
4 108 56 55 248
4 107 56 55 57
4 107 181 57 178
4 57 181 177 178
4 181 176 177 178
4 233 181 177 105
4 249 239 101 240
4 91 89 241 100
4 89 91 241 90
4 210 245 93 241
4 245 241 90 93
4 93 94 90 245
4 74 202 92 94
4 205 204 94 206
4 202 198 199 203
4 202 198 186 199
4 199 197 200 250
4 199 186 187 198
4 200 186 188 187
4 184 189 186 188
4 201 189 87 244
4 189 201 78 186
4 201 78 79 87
4 189 78 184 186
4 186 79 187 198
4 74 201 79 87
4 74 79 84 87
4 79 78 84 87
4 77 78 84 79
4 74 77 84 79
4 74 85 84 76
4 83 243 76 85
4 85 96 243 76
4 73 96 74 76
4 96 93 74 99
4 89 93 99 74
4 93 94 74 90
4 93 94 245 95
4 207 95 68 93
4 95 70 68 93
4 95 70 74 205
4 74 70 182 205
4 94 95 74 205
4 241 89 90 93
4 104 179 231 239
4 181 60 180 107
4 107 57 55 178
4 57 54 55 178
4 53 49 51 52
4 40 49 113 52
4 155 47 223 48
4 45 47 159 156
4 119 156 45 159
4 120 44 119 121
4 16 173 124 154
4 166 167 169 145
4 145 7 147 251
4 9 7 252 149
4 253 254 252 255
4 256 253 255 254
4 6 9 252 255
4 253 257 149 252
4 7 258 259 260
4 260 261 251 170
4 169 260 251 170
4 169 251 167 170
4 166 167 145 171
4 16 22 18 130
4 25 24 20 23
4 24 25 118 28
4 119 156 118 45
4 119 28 45 118
4 119 45 44 158
4 44 38 28 29
4 25 28 26 30
4 25 24 26 28
4 24 20 234 163
4 162 24 234 163
4 163 119 118 25
4 235 135 133 136
4 135 134 140 133
4 145 141 153 144
4 145 260 169 151
4 0 258 4 5
4 259 258 262 263
4 264 259 262 263
4 258 7 262 0
4 260 258 259 261
4 258 261 263 259
4 261 258 263 265
4 261 260 251 259
4 167 251 169 145
4 145 260 251 169
4 166 167 171 168
4 16 171 153 140
4 137 135 136 134
4 138 135 235 136
4 235 138 136 164
4 236 119 156 164
4 157 156 159 47
4 155 47 48 40
4 40 49 48 155
4 46 52 174 48
4 247 225 220 54
4 110 225 57 227
4 60 59 57 226
4 104 61 211 62
4 232 211 62 231
4 103 104 211 231
4 239 210 103 241
4 241 93 103 100
4 68 72 93 70
4 103 207 68 93
4 207 103 211 210
4 210 208 231 211
4 103 210 231 211
4 245 207 210 93
4 245 207 209 210
4 245 207 93 95
4 70 95 74 93
4 70 73 74 182
4 182 203 183 74
4 202 74 205 94
4 93 89 90 74
4 89 241 100 93
4 93 98 103 100
4 101 104 102 103
4 104 101 102 106
4 106 238 104 212
4 266 216 212 106
4 106 238 212 266
4 106 238 102 104
4 267 266 238 102
4 97 102 267 238
4 106 238 266 102
4 97 102 238 103
4 97 102 103 98
4 97 102 98 267
4 97 98 242 267
4 96 98 99 242
4 89 98 99 93
4 239 101 100 103
4 104 179 239 101
4 179 249 239 101
4 105 179 101 249
4 233 105 249 179
4 177 181 57 230
4 175 57 177 178
4 175 237 51 178
4 55 54 51 178
4 112 111 109 53
4 112 53 52 113
4 117 115 113 114
4 116 118 117 161
4 115 116 117 161
4 28 115 161 32
4 29 32 26 34
4 26 30 29 27
4 34 26 29 27
4 29 34 31 32
4 31 115 32 35
4 31 115 28 32
4 246 112 52 35
4 246 247 52 54
4 247 110 225 54
4 59 227 57 226
4 213 104 238 212
4 104 103 63 238
4 97 98 103 93
4 70 73 72 74
4 71 182 268 73
4 182 75 268 73
4 182 75 183 268
4 183 81 268 75
4 182 75 74 183
4 79 81 183 75
4 79 81 80 194
4 78 192 80 82
4 192 193 80 82
4 269 193 192 82
4 193 192 80 185
4 80 79 194 185
4 77 74 75 79
4 85 96 76 74
4 96 243 242 99
4 98 102 103 100
4 104 105 106 230
4 214 218 230 177
4 50 175 51 54
4 49 155 223 48
4 157 156 236 159
4 236 119 159 156
4 235 119 164 136
4 236 119 164 235
4 133 235 120 123
4 120 235 133 119
4 135 123 235 133
4 124 173 123 126
4 173 172 126 154
4 166 171 154 172
4 172 171 154 173
4 171 16 154 173
4 171 166 154 153
4 16 171 154 153
4 124 173 16 133
4 124 173 133 123
4 25 133 119 121
4 19 16 133 21
4 163 19 133 21
4 134 19 133 136
4 133 119 136 163
4 133 19 163 136
4 132 20 18 19
4 20 132 234 19
4 20 19 163 21
4 22 20 21 18
4 16 22 21 18
4 128 129 127 21
4 160 129 21 127
4 160 21 25 127
4 25 20 21 23
4 25 27 23 160
4 25 27 30 26
4 23 22 21 160
4 16 129 21 22
4 128 130 165 270
4 128 130 270 129
4 128 130 16 165
4 16 165 153 154
4 17 16 14 153
4 131 17 18 14
4 17 141 153 15
4 12 10 15 153
4 15 17 14 153
4 153 16 14 130
4 16 129 22 130
4 128 130 129 16
4 16 128 165 154
4 151 166 153 165
4 260 145 7 151
4 9 6 252 7
4 7 262 252 149
4 260 259 7 251
4 7 259 147 251
4 264 259 271 149
4 259 7 147 149
4 146 148 147 149
4 271 259 147 149
4 148 271 147 149
4 146 142 143 141
4 144 141 140 139
4 141 134 140 139
4 143 141 144 139
4 142 145 141 146
4 145 142 141 144
4 148 142 143 146
4 145 7 10 146
4 145 150 151 153
4 151 272 150 7
4 151 272 273 150
4 151 272 4 273
4 4 272 2 273
4 151 272 7 4
4 4 260 7 151
4 166 145 151 153
4 166 145 169 151
4 171 166 153 145
4 133 16 140 173
4 124 16 21 133
4 25 21 160 23
4 21 129 160 22
4 121 21 124 127
4 121 120 133 119
4 123 121 125 120
4 123 121 120 133
4 25 133 121 21
4 25 20 163 21
4 118 24 28 161
4 26 28 161 32
4 40 115 28 31
4 115 52 113 112
4 246 112 109 52
4 246 52 109 54
4 56 54 109 55
4 56 107 55 248
4 58 60 59 57
4 63 61 65 104
4 68 72 70 67
4 182 75 73 74
4 77 79 75 80
4 196 79 185 194
4 79 78 185 80
4 77 78 82 84
4 83 77 82 84
4 77 74 84 76
4 96 74 93 72
4 103 66 93 68
4 65 66 69 63
4 63 61 104 213
4 61 60 104 213
4 59 227 226 228
4 274 110 227 225
4 246 36 247 37
4 246 36 35 52
4 52 115 40 31
4 28 31 38 40
4 44 42 158 45
4 120 44 122 158
4 135 133 140 173
4 171 16 173 140
4 171 144 153 140
4 141 144 140 153
4 10 141 15 153
4 10 12 15 13
4 10 8 12 13
4 8 10 12 11
4 8 9 11 255
4 9 253 149 252
4 257 262 149 252
4 262 259 149 7
4 258 7 4 260
4 259 258 7 262
4 262 0 7 252
4 0 6 7 252
4 254 6 252 255
4 0 3 6 252
4 6 3 254 252
4 272 6 11 7
4 4 6 272 7
4 4 6 2 272
4 9 6 11 255
4 9 253 252 255
4 262 264 257 149
4 257 264 275 271
4 259 264 262 149
4 257 264 271 149
4 9 146 7 149
4 10 7 11 9
4 7 12 10 11
4 145 150 153 12
4 12 145 10 153
4 145 146 10 141
4 145 142 147 146
4 171 145 153 144
4 171 142 145 144
4 142 171 145 167
4 142 145 147 167
4 167 145 147 251
4 145 260 7 251
4 145 150 12 7
4 12 145 7 10
4 12 152 153 14
4 152 153 14 130
4 152 151 153 165
4 165 152 276 270
4 152 151 165 276
4 165 152 270 130
4 152 151 276 150
4 276 150 151 273
4 272 7 11 150
4 7 12 11 150
4 153 150 152 12
4 165 16 153 130
4 165 152 130 153
4 15 12 153 14
4 13 131 14 15
4 17 131 15 14
4 17 132 18 19
4 25 24 163 20
4 25 24 118 163
4 119 156 164 118
4 118 117 45 156
4 155 45 117 156
4 113 40 117 155
4 50 49 224 48
4 49 50 224 51
4 50 237 224 51
4 237 50 175 51
4 52 54 220 174
4 52 247 220 54
4 39 247 220 52
4 39 247 52 36
4 115 52 35 31
4 40 115 52 113
4 40 115 113 117
4 115 112 113 114
4 53 52 51 54
4 54 53 109 55
4 52 53 109 54
4 110 246 109 54
4 247 110 54 246
4 247 110 274 225
4 246 274 37 247
4 247 110 246 274
4 110 225 54 57
4 57 217 226 219
4 57 217 218 230
4 219 218 54 57
4 218 54 174 220
4 46 39 52 40
4 39 31 52 40
4 38 42 45 40
4 28 38 44 45
4 121 25 44 119
4 123 135 173 133
4 134 153 140 16
4 134 16 140 133
4 137 135 134 140
4 134 153 141 140
4 134 153 16 17
4 16 17 19 134
4 134 153 17 141
4 153 145 10 141
4 6 9 11 7
4 258 7 0 4
4 1 0 2 5

CELL_TYPES 734
10
10
10
10
10
10
10
10
10
10
10
10
10
10
10
10
10
10
10
10
10
10
10
10
10
10
10
10
10
10
10
10
10
10
10
10
10
10
10
10
10
10
10
10
10
10
10
10
10
10
10
10
10
10
10
10
10
10
10
10
10
10
10
10
10
10
10
10
10
10
10
10
10
10
10
10
10
10
10
10
10
10
10
10
10
10
10
10
10
10
10
10
10
10
10
10
10
10
10
10
10
10
10
10
10
10
10
10
10
10
10
10
10
10
10
10
10
10
10
10
10
10
10
10
10
10
10
10
10
10
10
10
10
10
10
10
10
10
10
10
10
10
10
10
10
10
10
10
10
10
10
10
10
10
10
10
10
10
10
10
10
10
10
10
10
10
10
10
10
10
10
10
10
10
10
10
10
10
10
10
10
10
10
10
10
10
10
10
10
10
10
10
10
10
10
10
10
10
10
10
10
10
10
10
10
10
10
10
10
10
10
10
10
10
10
10
10
10
10
10
10
10
10
10
10
10
10
10
10
10
10
10
10
10
10
10
10
10
10
10
10
10
10
10
10
10
10
10
10
10
10
10
10
10
10
10
10
10
10
10
10
10
10
10
10
10
10
10
10
10
10
10
10
10
10
10
10
10
10
10
10
10
10
10
10
10
10
10
10
10
10
10
10
10
10
10
10
10
10
10
10
10
10
10
10
10
10
10
10
10
10
10
10
10
10
10
10
10
10
10
10
10
10
10
10
10
10
10
10
10
10
10
10
10
10
10
10
10
10
10
10
10
10
10
10
10
10
10
10
10
10
10
10
10
10
10
10
10
10
10
10
10
10
10
10
10
10
10
10
10
10
10
10
10
10
10
10
10
10
10
10
10
10
10
10
10
10
10
10
10
10
10
10
10
10
10
10
10
10
10
10
10
10
10
10
10
10
10
10
10
10
10
10
10
10
10
10
10
10
10
10
10
10
10
10
10
10
10
10
10
10
10
10
10
10
10
10
10
10
10
10
10
10
10
10
10
10
10
10
10
10
10
10
10
10
10
10
10
10
10
10
10
10
10
10
10
10
10
10
10
10
10
10
10
10
10
10
10
10
10
10
10
10
10
10
10
10
10
10
10
10
10
10
10
10
10
10
10
10
10
10
10
10
10
10
10
10
10
10
10
10
10
10
10
10
10
10
10
10
10
10
10
10
10
10
10
10
10
10
10
10
10
10
10
10
10
10
10
10
10
10
10
10
10
10
10
10
10
10
10
10
10
10
10
10
10
10
10
10
10
10
10
10
10
10
10
10
10
10
10
10
10
10
10
10
10
10
10
10
10
10
10
10
10
10
10
10
10
10
10
10
10
10
10
10
10
10
10
10
10
10
10
10
10
10
10
10
10
10
10
10
10
10
10
10
10
10
10
10
10
10
10
10
10
10
10
10
10
10
10
10
10
10
10
10
10
10
10
10
10
10
10
10
10
10
10
10
10
10
10
10
10
10
10
10
10
10
10
10
10
10
10
10
10
10
10
10
10
10
10
10
10
10
10
10
10
10
10
10
10
10
10
10
10
10
10
10
10
10
10
10
10
10
10
10
10
10
10
10
10
10
10
10
10
10
10
10
10
10
10
10
10
10
10
10
10
10
10
10
10
10
10
10
10
10
10
10
10
10
10
10
10
10
10

CELL_DATA 734
SCALARS potentialEnergy FLOAT 1
LOOKUP_TABLE default
94.055893
61.480293
140.734787
301.290070
109.194946
73.917206
204.294327
68.247383
90.699806
71.739384
89.021049
102.037010
53.144459
75.293610
52.576759
125.739082
137.101624
55.866112
107.065094
121.958740
44.433006
31.217512
94.717323
38.992489
321.526184
130.035622
26.892845
265.243301
87.191422
53.720825
47.089500
182.658875
220.363419
187.460770
185.885147
171.785858
372.730286
87.273979
100.223763
170.053696
85.347107
200.353302
162.637115
64.518028
204.939392
149.111694
71.247017
99.492790
410.059509
302.157288
128.149544
211.919556
273.229950
146.469101
98.877480
68.725761
50.418617
36.253475
171.937897
199.034760
63.169392
30.739790
66.246880
154.717941
46.795715
109.518852
88.470146
100.344948
69.953644
44.006378
64.586624
35.527422
166.057037
65.569897
49.586594
51.525303
134.856758
175.980118
167.845474
45.261906
71.607750
41.655184
114.413460
312.205688
165.316345
244.360306
232.738022
203.194183
63.993942
151.998215
52.522430
66.956963
47.725056
35.737055
28.773849
44.988007
43.939579
19.643979
16.212633
23.242922
20.721941
59.847393
55.541248
76.301491
79.621887
40.326193
79.693756
27.298273
32.369511
68.015289
60.026894
89.370193
72.889755
96.074745
156.403244
64.624329
62.909279
73.778587
62.779949
40.654737
73.202335
35.656536
145.275177
163.444138
107.126968
328.705322
20.614499
84.732933
54.139687
112.054543
85.639954
108.323662
212.864563
49.421707
100.533836
55.733547
81.689468
310.396545
90.511955
78.121376
162.161545
97.092743
60.010185
389.906097
104.653877
174.056259
75.299019
52.999645
148.793274
115.526123
211.949097
164.884308
123.172295
170.703461
82.836868
96.424774
112.217720
101.111015
116.760429
52.652630
67.113232
75.029556
90.744316
58.141895
75.733833
125.028572
153.240387
61.486973
75.377556
33.851116
55.400265
71.305546
173.097641
122.652710
155.637390
88.035034
59.200932
57.651726
87.948524
43.758560
46.405800
139.051743
119.250404
59.004448
124.821251
82.294563
33.754374
78.911163
92.373726
161.246475
15.045026
52.366875
124.649788
217.996063
113.133392
119.939476
105.326088
70.495693
103.476753
79.632866
109.512794
68.142925
115.314674
204.592438
80.053047
53.164593
90.609581
118.616371
96.418320
343.187866
52.297825
124.604225
95.164513
51.276066
103.861305
165.788986
215.630997
72.376820
68.238468
142.290298
238.423615
80.274513
53.807880
49.899582
56.840298
36.420996
132.964096
192.062073
413.561127
29.630457
85.769936
64.805050
64.679081
74.580399
84.648796
68.809727
36.472286
19.696294
55.301727
21.608772
85.047684
156.337158
204.793335
41.183317
48.061295
91.097610
88.128944
50.025700
88.396500
109.717270
67.707954
93.453529
140.378128
59.926079
55.823265
114.083710
96.094124
80.048691
91.144196
127.184959
185.425583
216.852890
30.599092
69.763149
32.207537
31.232498
42.890251
62.580185
133.707138
142.036636
154.722672
39.718212
30.547976
41.855759
78.289383
76.320023
118.366966
96.107422
77.546303
135.680397
57.157871
39.156487
162.074326
107.280815
76.666466
150.753189
80.896019
63.211487
36.707689
58.593155
128.119873
131.164322
55.962044
139.280914
88.294090
71.189312
54.305977
76.071022
210.836060
66.548775
71.425274
88.846298
100.532333
60.017651
105.391144
85.430489
71.504120
229.931915
90.708954
105.529793
75.681992
89.242500
187.262711
78.784431
98.194687
147.336258
56.052265
28.603775
32.207918
17.996929
143.353683
180.051971
48.845592
63.710304
45.909466
63.860302
64.709736
141.444870
216.270905
120.920021
79.116302
258.111282
131.020699
96.158447
186.400497
109.944939
78.781822
145.143997
99.579788
110.600601
111.856514
164.218216
142.285110
83.694855
72.401073
71.603424
67.970177
99.392212
214.534271
196.931000
160.569153
356.868835
43.171593
79.604622
181.697739
99.051414
72.387825
60.307655
260.571960
85.777878
179.143707
91.327766
65.449028
197.160568
32.036274
47.783249
137.021072
110.959953
57.802120
15.338081
49.123329
41.323402
155.712311
261.588181
412.734467
116.565186
77.777626
67.063831
75.510315
57.547226
107.974609
366.360565
165.778183
246.120270
352.506287
61.679619
70.759949
56.143093
48.513138
43.605968
50.566452
52.114563
51.039780
68.534706
103.902618
43.086918
58.372879
111.238701
107.862236
127.979866
66.956352
35.681526
395.057892
275.163879
54.087627
141.651276
97.595963
98.559868
171.599304
493.838623
144.570465
248.689865
110.233620
40.967266
27.296288
84.950653
49.390247
37.125090
87.700966
92.425568
101.985229
81.079254
67.212948
221.307358
135.448425
40.447077
32.616995
117.766861
215.696045
98.827042
79.629364
147.173248
51.115314
101.003410
141.875122
66.690365
152.520767
155.209991
379.547577
65.015400
97.528450
48.352142
92.242867
106.848587
43.009949
42.920296
105.166840
130.384544
71.012951
50.388454
32.286713
62.226753
100.216087
100.274353
113.888191
44.354259
33.795122
67.814297
51.949871
31.548012
263.557037
92.829300
66.923641
33.884268
120.130081
70.183403
34.281597
52.802380
42.531269
104.751144
62.870453
76.288147
52.907467
49.305443
29.622522
68.871159
59.285782
74.412399
52.824116
42.897610
58.976917
202.334869
80.883331
37.573580
47.400177
32.165686
232.510498
316.178009
98.988297
90.937706
57.402798
137.679726
82.090240
157.101715
202.697800
153.813248
249.389435
195.166245
241.574127
117.680443
69.121883
401.305237
147.058075
102.376579
34.592594
66.110825
63.411034
84.068710
77.052605
36.525827
24.103851
39.980930
35.983456
39.217472
72.772110
53.308159
32.893913
62.252430
119.798691
199.485764
212.848511
133.395592
74.299927
69.591999
124.898056
43.823116
48.248516
64.715435
38.618622
37.201828
37.010597
45.776966
117.090408
43.469288
70.384155
138.484955
53.089058
73.256641
73.518394
35.834679
181.834366
66.601830
55.979977
132.778351
145.585968
54.007065
62.688244
168.911179
46.095406
211.510941
114.242157
294.260406
217.321884
199.213089
172.878662
49.594852
174.373764
88.556061
108.727646
94.609619
300.310364
125.874359
102.959213
312.111481
214.730865
81.874992
86.683243
121.507507
112.565147
229.853088
121.564941
699.705811
246.837402
135.925713
77.287819
76.274933
254.520081
155.481750
84.670181
164.746002
114.141182
98.937874
146.792648
159.626602
246.474121
155.610275
53.773441
45.427902
53.773254
42.349072
100.928398
26.783455
50.280869
85.808716
125.287376
84.607132
58.379143
143.570099
110.928726
87.934929
99.578033
113.605247
62.730125
152.383545
151.527298
39.517006
184.126831
138.657196
234.828140
244.018127
75.929733
183.886429
167.536026
76.872932
125.892723
88.538116
182.380630
67.574890
52.806625
48.427460
41.951071
127.919586
187.529922
47.083733
59.467964
67.148415
56.919655
136.810127
199.699371
404.596924
114.594879
141.729034
213.104065
100.107468
74.967133
88.248322
72.926926
42.054916
113.362526
110.144707
42.023182
64.765133
76.930260
333.975586
322.282104
140.413086
205.226837
253.282791
204.576492
61.549919
74.172920
622.328918
87.782082
24.883339
119.514572
299.535004
172.830765
107.471710
183.885910
245.823486
491.855133
160.783295
229.729874
279.815430
263.084732
267.672485
113.699043
36.314169
74.701813
310.328339
89.312538
91.857765
39.473440
62.565853
142.892197
124.217461
318.094543
191.909515
159.728455
231.062042
65.756618
218.884262
392.093262
335.089935
128.697067
54.979851
271.714172
86.346130
40.973564
37.197281
22.406981
146.875946
107.323662
101.666313
123.024498
27.515171
204.059509
184.174133
160.983856
85.632263
73.005939
204.717133
212.324615
107.291359
141.605362
194.147003
178.966293
55.232582
83.991203
72.933064
126.683975
58.186104
55.060410
62.718334
325.853577
55.082191
125.401215
136.960800
221.001068
40.117720
48.074501
44.549564
59.146725
80.470390
229.133041
189.889206
272.978363
21.447483
40.505629
83.207695
79.176781
337.713623
32.691919
76.036240

