# vtk DataFile Version 3.1
Tetrahedral Mesh Visualization
ASCII
DATASET UNSTRUCTURED_GRID

POINTS 277 FLOAT
0.000000 1.378113 1.754166
0.000000 0.000000 0.000000
2.001262 0.003934 0.015526
0.000000 1.666667 0.000000
2.423816 -0.000601 1.750923
0.000000 0.000000 1.666667
1.696799 2.467941 0.014542
3.002440 2.448021 2.347374
4.014353 4.986305 0.028490
3.081843 4.991343 1.664498
5.220891 4.984447 1.651133
3.499349 3.171996 0.031523
5.421267 3.290171 0.051366
6.013944 4.980025 0.042399
7.379977 3.308182 0.068493
6.979527 4.979664 1.377381
9.257564 2.145592 2.124338
8.697612 4.972150 1.689075
9.359449 3.308652 0.090708
10.656690 4.981072 1.768644
11.340365 3.312884 0.116952
11.109459 1.837270 1.677504
10.685968 1.643104 0.107546
12.669383 1.652463 0.124991
13.324183 3.327466 0.129838
12.964127 1.860789 1.626978
14.649566 1.660811 0.131557
13.984742 -0.013822 0.141550
15.456146 2.140303 1.820084
15.316371 -0.005148 1.794829
13.325933 -0.013206 1.811354
17.276649 0.012070 1.698921
16.632648 1.664026 0.108203
17.960289 0.008804 0.071988
15.964605 -0.010449 0.123548
18.636183 1.680085 0.062917
18.984350 0.019575 1.368116
19.963156 0.021266 0.027056
16.740984 0.012977 3.401645
19.002996 0.016907 3.161199
17.712704 2.705384 3.037897
18.029602 0.007745 5.070795
16.710138 1.671552 5.100482
16.026564 0.011281 5.117745
14.682347 0.000207 3.475679
15.779229 2.886689 3.475177
18.763502 1.708629 5.061671
17.341236 3.349535 5.091507
19.322092 3.398795 5.056160
19.345198 5.010180 3.390445
21.036346 3.686416 5.020337
21.354149 5.004227 3.348700
19.630447 2.509273 2.407290
20.657179 5.008699 1.696557
21.917791 2.506957 2.479435
22.661814 4.995234 1.673726
23.269810 3.388971 0.005012
23.973436 2.436605 2.300160
24.975370 3.678184 0.000422
24.971924 1.884001 -0.006938
25.975025 2.489534 1.719658
27.223089 1.671608 -0.026814
26.676418 3.373035 -0.020642
29.250675 -0.025390 1.560566
27.965084 -0.026112 -0.037198
29.268541 1.643255 -0.055187
30.956652 -0.022029 1.233234
31.952862 -0.014739 -0.106217
31.260336 1.646773 -0.090219
29.957407 -0.025613 -0.071712
33.231339 1.627739 -0.120721
33.956551 -0.027671 -0.126540
32.656166 -0.019129 1.496708
34.575813 -0.029076 1.553051
34.986645 2.369912 2.400203
36.493877 -0.030535 1.672661
35.145058 -0.027835 3.252094
36.839291 -0.024877 3.396429
38.326862 2.481565 4.834441
37.683731 2.130393 2.024988
38.297432 -0.036388 2.375843
37.963737 -0.039364 -0.155057
38.021351 -0.029790 4.851335
36.030338 -0.028232 4.855148
36.590794 1.723390 4.852963
34.962200 1.307879 4.867465
34.880146 3.102895 4.864429
36.789379 3.454125 4.840583
34.036877 4.972128 4.864491
32.725266 3.274972 4.891833
33.285542 4.967626 3.223482
32.038376 4.978548 4.898931
35.171326 4.962866 3.243294
32.195103 2.579642 2.323400
34.582973 4.968387 1.554639
32.594177 3.303798 -0.110297
33.208172 -0.022578 3.191186
30.983812 -0.019837 3.026010
31.345942 1.633845 4.912798
33.276348 1.578096 4.883231
30.705667 3.309976 4.919846
28.702627 3.307034 4.950401
29.362091 1.639049 4.942036
30.014389 2.484035 2.410673
27.958565 2.467617 2.442760
26.697819 3.310074 4.986406
27.358316 1.642767 4.969675
24.662079 4.992423 1.674740
21.982302 5.006830 0.016856
21.309343 3.352948 0.017910
22.710413 1.699524 0.003331
19.969383 5.009435 0.047480
19.305773 3.345403 0.058254
18.650429 5.008089 1.738571
17.961176 5.001114 0.090261
17.302435 3.331032 0.103226
15.974194 5.003008 0.113668
16.643826 5.003304 1.777879
14.644512 4.998502 1.792717
13.690571 2.952928 3.399899
12.998360 1.316700 5.139383
12.668132 -0.008411 3.477828
14.009199 0.003191 5.150324
11.267356 1.605009 5.126795
10.660230 -0.026392 3.458431
11.995877 0.001345 5.143472
9.986490 -0.009868 5.116458
11.328003 -0.024200 1.796904
9.311587 -0.032277 1.770778
10.008676 -0.023135 0.103394
8.699162 1.638629 0.088515
8.017535 4.979261 0.066610
10.011089 4.981532 0.097536
11.216518 2.619067 3.409463
9.245520 4.972685 3.385806
10.722672 3.291372 5.115714
11.297803 4.975618 3.454841
9.974046 4.977203 5.099769
11.985399 4.978098 5.128186
7.982486 4.989990 5.066066
8.723392 3.372042 5.086469
6.964099 4.986194 3.165116
5.349037 3.365415 5.050699
5.992118 5.002740 5.039969
7.017637 3.671631 5.059264
5.141233 2.355772 3.193088
4.622184 4.986139 3.323530
3.478940 3.190741 5.028144
3.990942 5.000477 5.022292
2.369565 4.996214 3.289958
4.856028 1.596184 0.050307
4.911513 -0.010969 1.931628
6.740153 1.635402 0.061705
7.016370 2.536812 2.261047
8.649234 -0.025295 3.429625
17.337118 5.012320 3.428714
15.325171 4.993567 3.457625
16.013435 4.993664 5.112933
14.721161 1.611087 5.131526
15.279423 3.299470 5.122277
11.998396 -0.019335 0.127253
15.314051 3.333886 0.125581
13.984477 4.997216 0.123375
12.645656 4.989447 1.795514
13.317731 4.986442 3.466296
7.243566 -0.023765 1.766928
6.665929 -0.021539 3.452635
4.898694 1.641783 5.052114
5.984470 -0.006991 5.068430
4.907835 -0.014567 3.716991
3.983952 -0.005686 5.040584
7.035706 1.875401 5.068491
7.982719 -0.014652 5.082992
9.262394 1.672961 5.092653
21.030725 1.896755 5.023603
22.740446 3.379134 5.003806
24.036093 4.982509 4.998928
24.696926 3.318703 4.998874
23.350107 4.987518 3.336607
27.350138 4.972490 3.314812
26.661634 4.982691 1.653085
25.353445 4.976913 3.335396
35.119442 1.571406 -0.136387
36.802322 1.419162 -0.155705
40.019264 3.188889 3.443041
40.000786 1.575557 2.435136
38.316605 4.953296 2.356765
40.000698 3.193395 1.719482
40.027977 4.935701 3.142753
38.040878 4.963462 4.824365
40.044518 4.940752 4.813705
40.038647 3.279763 4.819356
40.026405 1.612357 4.840168
40.000603 -0.053611 3.175843
39.986454 -0.054038 1.512566
39.966709 -0.054820 -0.156399
39.968651 1.609176 -0.155817
39.978065 3.273983 -0.174168
38.277027 2.424123 -0.164854
37.979908 4.953597 -0.169840
40.002583 4.944462 1.480542
36.857376 4.967203 3.378576
36.505413 4.963556 1.658601
36.477467 3.141773 -0.152194
35.972107 4.957864 -0.158546
34.558392 3.270570 -0.128562
33.967804 4.965966 -0.133103
30.609024 3.318305 -0.079524
29.959354 4.981632 -0.072778
31.963284 4.975057 -0.106601
30.638237 4.986575 1.585810
28.621403 3.312796 -0.051716
26.731295 -0.023200 3.358763
27.247461 -0.029687 1.661320
25.343758 1.650717 4.987142
24.017908 -0.018107 4.990415
26.025097 -0.024597 4.976288
25.006557 -0.016691 3.664716
23.286646 1.682908 5.000471
23.275328 -0.014016 3.383199
21.263605 0.006146 3.316662
22.009102 -0.003382 5.002070
20.023235 0.008034 5.029691
18.033083 5.007548 5.077072
20.042551 5.003035 5.042854
22.722719 -0.004089 1.689502
24.989805 -0.012198 1.877669
23.969467 -0.002921 -0.005524
25.963455 -0.023293 -0.014386
25.982496 4.993935 -0.002374
25.716801 2.214777 3.478477
28.647558 4.974906 1.613064
27.970407 4.977155 -0.048948
26.038485 4.975197 4.995657
11.997381 4.986082 0.116528
12.995027 3.100993 5.128201
13.999759 4.981225 5.131096
22.042503 4.995044 5.012847
28.738983 -0.027195 3.261986
29.340897 4.983169 3.270799
30.038534 4.984525 4.923666
31.327032 4.984955 3.242329
32.029202 -0.025120 4.897562
34.025551 -0.025473 4.871336
36.035019 4.972824 4.840782
32.620480 4.976114 1.555824
20.651501 1.689350 0.025016
20.707506 0.013116 1.630490
23.985983 5.000220 0.010682
28.045748 4.974266 4.967500
39.983219 4.937982 -0.184773
3.175894 1.463900 5.022731
0.000000 3.103853 1.750106
0.000000 5.000000 1.666667
0.000000 3.333333 0.000000
2.002337 4.997302 0.014471
0.000000 5.000000 0.000000
0.000000 5.000000 3.333333
0.000000 0.000000 3.333333
1.694445 2.467891 5.012210
3.033817 -0.009045 3.414958
1.995788 -0.010874 5.013915
0.000000 2.403264 3.370902
0.000000 1.666667 5.000000
0.000000 3.333333 5.000000
0.000000 0.000000 5.000000
28.032019 -0.023859 4.961720
30.033394 -0.023728 4.933502
35.964367 -0.029160 -0.145503
40.014900 -0.060739 4.844400
8.010778 -0.024581 0.084939
1.997453 4.997108 5.011789
3.172189 1.451968 0.029996
4.009540 -0.003428 0.042713
21.965073 0.004863 0.010238
0.000000 5.000000 5.000000
6.009606 -0.013539 0.061030

CELLS 734 3670
4 0 1 2 3
4 0 4 2 5
4 0 3 2 6
4 4 6 0 2
4 4 6 7 0
4 8 9 10 11
4 12 13 14 15
4 16 17 14 18
4 19 20 18 21
4 20 22 21 23
4 24 25 26 23
4 25 27 26 23
4 26 28 29 30
4 28 29 31 32
4 33 34 32 31
4 31 33 35 32
4 31 33 36 35
4 33 37 36 35
4 38 39 40 31
4 41 42 43 38
4 44 42 45 38
4 44 42 38 43
4 46 38 42 41
4 46 47 40 48
4 49 50 51 52
4 53 54 51 55
4 56 54 55 57
4 56 58 59 57
4 60 59 61 62
4 63 61 64 65
4 66 67 68 69
4 67 70 71 72
4 73 74 75 76
4 74 77 75 76
4 77 78 79 80
4 79 81 75 80
4 77 78 80 82
4 77 83 76 84
4 83 85 76 84
4 85 86 74 84
4 74 86 87 84
4 88 89 86 90
4 91 89 88 90
4 86 88 90 92
4 90 86 92 74
4 86 89 74 90
4 93 94 95 74
4 70 74 72 93
4 70 73 71 72
4 74 96 73 72
4 66 97 93 72
4 96 97 72 93
4 96 98 97 93
4 85 96 74 99
4 96 98 93 99
4 98 89 100 93
4 101 102 100 103
4 104 105 101 106
4 107 58 57 60
4 58 107 57 56
4 53 108 109 55
4 56 110 109 54
4 53 111 109 108
4 112 53 109 52
4 111 112 113 53
4 112 111 113 114
4 115 116 114 117
4 40 28 115 117
4 45 117 118 28
4 119 28 25 44
4 120 44 121 122
4 123 121 124 125
4 125 123 126 124
4 127 128 21 124
4 16 129 128 21
4 16 18 14 130
4 16 17 18 19
4 131 17 132 18
4 16 19 18 21
4 133 16 19 134
4 135 134 133 136
4 135 137 136 138
4 137 134 139 140
4 141 142 143 144
4 145 146 147 7
4 142 148 147 146
4 7 146 147 149
4 10 7 9 146
4 145 150 7 151
4 152 151 150 153
4 16 128 154 124
4 124 21 121 133
4 25 28 30 44
4 28 38 45 40
4 45 47 40 42
4 155 45 156 47
4 157 156 47 155
4 155 45 40 117
4 45 42 158 159
4 44 42 43 158
4 119 45 158 159
4 120 44 158 119
4 25 127 21 121
4 25 27 160 30
4 127 25 160 30
4 25 127 121 30
4 44 25 121 30
4 28 30 44 29
4 119 28 44 45
4 119 28 118 25
4 28 24 26 161
4 26 32 29 28
4 28 31 29 38
4 46 38 41 39
4 46 38 39 40
4 28 117 40 45
4 118 28 117 161
4 162 24 118 161
4 118 119 163 164
4 136 119 164 163
4 25 133 21 163
4 128 16 21 124
4 165 166 153 154
4 166 167 168 169
4 167 168 169 170
4 171 168 172 166
4 124 173 126 154
4 123 121 133 124
4 120 125 122 121
4 122 158 44 43
4 47 46 40 42
4 52 50 174 48
4 175 50 174 54
4 176 175 177 178
4 179 60 180 181
4 64 69 63 65
4 68 72 67 66
4 70 73 182 71
4 74 79 183 75
4 184 78 185 79
4 79 184 186 187
4 186 184 188 187
4 184 189 190 191
4 184 78 79 186
4 78 189 184 191
4 189 184 190 188
4 184 78 191 192
4 184 78 192 185
4 192 78 80 185
4 193 80 194 185
4 195 81 196 194
4 81 79 196 194
4 197 187 196 198
4 187 79 185 196
4 79 184 187 185
4 197 199 187 198
4 199 197 187 200
4 199 200 187 186
4 78 201 79 186
4 189 201 87 78
4 202 201 79 74
4 201 74 92 87
4 201 202 92 74
4 201 202 79 186
4 202 203 74 79
4 202 198 203 79
4 204 202 199 203
4 202 203 205 74
4 202 204 205 203
4 182 203 74 205
4 74 203 183 79
4 79 203 183 198
4 79 81 198 183
4 81 79 198 196
4 187 79 196 198
4 202 198 79 186
4 202 204 94 205
4 94 95 205 206
4 207 208 209 210
4 208 207 211 210
4 104 103 211 65
4 104 60 212 213
4 214 215 216 217
4 218 219 220 221
4 222 174 220 221
4 46 39 222 174
4 52 46 40 48
4 40 49 52 48
4 53 49 52 113
4 40 49 155 113
4 155 45 47 40
4 157 47 223 155
4 49 223 224 48
4 52 50 51 54
4 175 54 57 178
4 218 175 54 57
4 225 219 54 57
4 218 175 57 177
4 57 217 219 218
4 219 225 226 57
4 225 227 226 57
4 59 110 57 227
4 59 60 61 228
4 61 60 213 228
4 64 61 213 228
4 63 61 213 64
4 61 104 211 65
4 180 60 104 62
4 58 229 62 180
4 58 60 180 62
4 60 61 104 62
4 60 226 230 212
4 226 60 213 212
4 60 104 212 230
4 179 60 230 104
4 104 211 231 62
4 180 229 62 232
4 180 232 62 231
4 179 60 104 180
4 233 181 105 179
4 181 105 179 230
4 105 214 106 230
4 105 214 230 177
4 215 214 218 217
4 215 217 218 219
4 218 215 219 221
4 218 175 174 54
4 39 52 220 174
4 39 46 52 174
4 115 52 112 35
4 28 115 117 161
4 162 118 116 161
4 24 162 118 163
4 20 19 234 163
4 25 133 163 119
4 120 119 158 235
4 236 119 235 159
4 235 119 158 159
4 119 235 133 136
4 138 235 236 164
4 45 47 42 159
4 46 38 40 42
4 49 50 52 48
4 237 175 176 178
4 181 233 177 176
4 180 179 231 104
4 207 103 65 211
4 207 103 68 65
4 65 66 103 68
4 103 66 97 93
4 66 103 97 63
4 213 104 63 238
4 238 97 103 63
4 104 102 103 238
4 104 106 212 230
4 214 212 106 230
4 214 212 216 106
4 214 212 217 216
4 214 212 230 217
4 226 217 230 212
4 226 60 230 57
4 181 60 57 230
4 179 105 104 230
4 179 105 101 104
4 104 239 103 101
4 239 101 240 100
4 91 241 240 100
4 241 239 240 100
4 239 241 103 100
4 103 210 93 241
4 103 207 93 210
4 210 103 231 239
4 103 239 104 231
4 103 104 63 65
4 65 66 63 103
4 65 66 68 69
4 68 72 66 93
4 96 98 242 97
4 85 96 99 243
4 85 86 99 74
4 86 89 99 74
4 88 86 244 92
4 74 86 92 87
4 201 244 87 92
4 244 86 87 92
4 90 74 92 94
4 94 95 206 245
4 95 209 206 245
4 245 207 95 209
4 208 232 231 211
4 180 104 231 62
4 181 60 107 57
4 54 175 51 178
4 50 52 174 54
4 246 36 52 247
4 246 36 37 35
4 52 31 36 35
4 31 39 52 36
4 39 46 222 41
4 39 222 174 220
4 174 218 220 221
4 218 219 54 220
4 225 219 220 54
4 56 110 54 57
4 110 56 59 57
4 60 59 226 228
4 60 226 213 228
4 57 217 230 226
4 214 217 230 218
4 218 57 230 177
4 181 105 230 177
4 179 60 181 230
4 58 107 180 60
4 229 107 58 248
4 229 107 180 58
4 60 58 59 62
4 58 107 56 248
4 108 56 109 55
4 108 56 55 248
4 107 56 55 57
4 107 181 57 178
4 57 181 177 178
4 181 176 177 178
4 233 181 177 105
4 249 239 101 240
4 91 89 241 100
4 89 91 241 90
4 210 245 93 241
4 245 241 90 93
4 93 94 90 245
4 74 202 92 94
4 205 204 94 206
4 202 198 199 203
4 202 198 186 199
4 199 197 200 250
4 199 186 187 198
4 200 186 188 187
4 184 189 186 188
4 201 189 87 244
4 189 201 78 186
4 201 78 79 87
4 189 78 184 186
4 186 79 187 198
4 74 201 79 87
4 74 79 84 87
4 79 78 84 87
4 77 78 84 79
4 74 77 84 79
4 74 85 84 76
4 83 243 76 85
4 85 96 243 76
4 73 96 74 76
4 96 93 74 99
4 89 93 99 74
4 93 94 74 90
4 93 94 245 95
4 207 95 68 93
4 95 70 68 93
4 95 70 74 205
4 74 70 182 205
4 94 95 74 205
4 241 89 90 93
4 104 179 231 239
4 181 60 180 107
4 107 57 55 178
4 57 54 55 178
4 53 49 51 52
4 40 49 113 52
4 155 47 223 48
4 45 47 159 156
4 119 156 45 159
4 120 44 119 121
4 16 173 124 154
4 166 167 169 145
4 145 7 147 251
4 9 7 252 149
4 253 254 252 255
4 256 253 255 254
4 6 9 252 255
4 253 257 149 252
4 7 258 259 260
4 260 261 251 170
4 169 260 251 170
4 169 251 167 170
4 166 167 145 171
4 16 22 18 130
4 25 24 20 23
4 24 25 118 28
4 119 156 118 45
4 119 28 45 118
4 119 45 44 158
4 44 38 28 29
4 25 28 26 30
4 25 24 26 28
4 24 20 234 163
4 162 24 234 163
4 163 119 118 25
4 235 135 133 136
4 135 134 140 133
4 145 141 153 144
4 145 260 169 151
4 0 258 4 5
4 259 258 262 263
4 264 259 262 263
4 258 7 262 0
4 260 258 259 261
4 258 261 263 259
4 261 258 263 265
4 261 260 251 259
4 167 251 169 145
4 145 260 251 169
4 166 167 171 168
4 16 171 153 140
4 137 135 136 134
4 138 135 235 136
4 235 138 136 164
4 236 119 156 164
4 157 156 159 47
4 155 47 48 40
4 40 49 48 155
4 46 52 174 48
4 247 225 220 54
4 110 225 57 227
4 60 59 57 226
4 104 61 211 62
4 232 211 62 231
4 103 104 211 231
4 239 210 103 241
4 241 93 103 100
4 68 72 93 70
4 103 207 68 93
4 207 103 211 210
4 210 208 231 211
4 103 210 231 211
4 245 207 210 93
4 245 207 209 210
4 245 207 93 95
4 70 95 74 93
4 70 73 74 182
4 182 203 183 74
4 202 74 205 94
4 93 89 90 74
4 89 241 100 93
4 93 98 103 100
4 101 104 102 103
4 104 101 102 106
4 106 238 104 212
4 266 216 212 106
4 106 238 212 266
4 106 238 102 104
4 267 266 238 102
4 97 102 267 238
4 106 238 266 102
4 97 102 238 103
4 97 102 103 98
4 97 102 98 267
4 97 98 242 267
4 96 98 99 242
4 89 98 99 93
4 239 101 100 103
4 104 179 239 101
4 179 249 239 101
4 105 179 101 249
4 233 105 249 179
4 177 181 57 230
4 175 57 177 178
4 175 237 51 178
4 55 54 51 178
4 112 111 109 53
4 112 53 52 113
4 117 115 113 114
4 116 118 117 161
4 115 116 117 161
4 28 115 161 32
4 29 32 26 34
4 26 30 29 27
4 34 26 29 27
4 29 34 31 32
4 31 115 32 35
4 31 115 28 32
4 246 112 52 35
4 246 247 52 54
4 247 110 225 54
4 59 227 57 226
4 213 104 238 212
4 104 103 63 238
4 97 98 103 93
4 70 73 72 74
4 71 182 268 73
4 182 75 268 73
4 182 75 183 268
4 183 81 268 75
4 182 75 74 183
4 79 81 183 75
4 79 81 80 194
4 78 192 80 82
4 192 193 80 82
4 269 193 192 82
4 193 192 80 185
4 80 79 194 185
4 77 74 75 79
4 85 96 76 74
4 96 243 242 99
4 98 102 103 100
4 104 105 106 230
4 214 218 230 177
4 50 175 51 54
4 49 155 223 48
4 157 156 236 159
4 236 119 159 156
4 235 119 164 136
4 236 119 164 235
4 133 235 120 123
4 120 235 133 119
4 135 123 235 133
4 124 173 123 126
4 173 172 126 154
4 166 171 154 172
4 172 171 154 173
4 171 16 154 173
4 171 166 154 153
4 16 171 154 153
4 124 173 16 133
4 124 173 133 123
4 25 133 119 121
4 19 16 133 21
4 163 19 133 21
4 134 19 133 136
4 133 119 136 163
4 133 19 163 136
4 132 20 18 19
4 20 132 234 19
4 20 19 163 21
4 22 20 21 18
4 16 22 21 18
4 128 129 127 21
4 160 129 21 127
4 160 21 25 127
4 25 20 21 23
4 25 27 23 160
4 25 27 30 26
4 23 22 21 160
4 16 129 21 22
4 128 130 165 270
4 128 130 270 129
4 128 130 16 165
4 16 165 153 154
4 17 16 14 153
4 131 17 18 14
4 17 141 153 15
4 12 10 15 153
4 15 17 14 153
4 153 16 14 130
4 16 129 22 130
4 128 130 129 16
4 16 128 165 154
4 151 166 153 165
4 260 145 7 151
4 9 6 252 7
4 7 262 252 149
4 260 259 7 251
4 7 259 147 251
4 264 259 271 149
4 259 7 147 149
4 146 148 147 149
4 271 259 147 149
4 148 271 147 149
4 146 142 143 141
4 144 141 140 139
4 141 134 140 139
4 143 141 144 139
4 142 145 141 146
4 145 142 141 144
4 148 142 143 146
4 145 7 10 146
4 145 150 151 153
4 151 272 150 7
4 151 272 273 150
4 151 272 4 273
4 4 272 2 273
4 151 272 7 4
4 4 260 7 151
4 166 145 151 153
4 166 145 169 151
4 171 166 153 145
4 133 16 140 173
4 124 16 21 133
4 25 21 160 23
4 21 129 160 22
4 121 21 124 127
4 121 120 133 119
4 123 121 125 120
4 123 121 120 133
4 25 133 121 21
4 25 20 163 21
4 118 24 28 161
4 26 28 161 32
4 40 115 28 31
4 115 52 113 112
4 246 112 109 52
4 246 52 109 54
4 56 54 109 55
4 56 107 55 248
4 58 60 59 57
4 63 61 65 104
4 68 72 70 67
4 182 75 73 74
4 77 79 75 80
4 196 79 185 194
4 79 78 185 80
4 77 78 82 84
4 83 77 82 84
4 77 74 84 76
4 96 74 93 72
4 103 66 93 68
4 65 66 69 63
4 63 61 104 213
4 61 60 104 213
4 59 227 226 228
4 274 110 227 225
4 246 36 247 37
4 246 36 35 52
4 52 115 40 31
4 28 31 38 40
4 44 42 158 45
4 120 44 122 158
4 135 133 140 173
4 171 16 173 140
4 171 144 153 140
4 141 144 140 153
4 10 141 15 153
4 10 12 15 13
4 10 8 12 13
4 8 10 12 11
4 8 9 11 255
4 9 253 149 252
4 257 262 149 252
4 262 259 149 7
4 258 7 4 260
4 259 258 7 262
4 262 0 7 252
4 0 6 7 252
4 254 6 252 255
4 0 3 6 252
4 6 3 254 252
4 272 6 11 7
4 4 6 272 7
4 4 6 2 272
4 9 6 11 255
4 9 253 252 255
4 262 264 257 149
4 257 264 275 271
4 259 264 262 149
4 257 264 271 149
4 9 146 7 149
4 10 7 11 9
4 7 12 10 11
4 145 150 153 12
4 12 145 10 153
4 145 146 10 141
4 145 142 147 146
4 171 145 153 144
4 171 142 145 144
4 142 171 145 167
4 142 145 147 167
4 167 145 147 251
4 145 260 7 251
4 145 150 12 7
4 12 145 7 10
4 12 152 153 14
4 152 153 14 130
4 152 151 153 165
4 165 152 276 270
4 152 151 165 276
4 165 152 270 130
4 152 151 276 150
4 276 150 151 273
4 272 7 11 150
4 7 12 11 150
4 153 150 152 12
4 165 16 153 130
4 165 152 130 153
4 15 12 153 14
4 13 131 14 15
4 17 131 15 14
4 17 132 18 19
4 25 24 163 20
4 25 24 118 163
4 119 156 164 118
4 118 117 45 156
4 155 45 117 156
4 113 40 117 155
4 50 49 224 48
4 49 50 224 51
4 50 237 224 51
4 237 50 175 51
4 52 54 220 174
4 52 247 220 54
4 39 247 220 52
4 39 247 52 36
4 115 52 35 31
4 40 115 52 113
4 40 115 113 117
4 115 112 113 114
4 53 52 51 54
4 54 53 109 55
4 52 53 109 54
4 110 246 109 54
4 247 110 54 246
4 247 110 274 225
4 246 274 37 247
4 247 110 246 274
4 110 225 54 57
4 57 217 226 219
4 57 217 218 230
4 219 218 54 57
4 218 54 174 220
4 46 39 52 40
4 39 31 52 40
4 38 42 45 40
4 28 38 44 45
4 121 25 44 119
4 123 135 173 133
4 134 153 140 16
4 134 16 140 133
4 137 135 134 140
4 134 153 141 140
4 134 153 16 17
4 16 17 19 134
4 134 153 17 141
4 153 145 10 141
4 6 9 11 7
4 258 7 0 4
4 1 0 2 5

CELL_TYPES 734
10
10
10
10
10
10
10
10
10
10
10
10
10
10
10
10
10
10
10
10
10
10
10
10
10
10
10
10
10
10
10
10
10
10
10
10
10
10
10
10
10
10
10
10
10
10
10
10
10
10
10
10
10
10
10
10
10
10
10
10
10
10
10
10
10
10
10
10
10
10
10
10
10
10
10
10
10
10
10
10
10
10
10
10
10
10
10
10
10
10
10
10
10
10
10
10
10
10
10
10
10
10
10
10
10
10
10
10
10
10
10
10
10
10
10
10
10
10
10
10
10
10
10
10
10
10
10
10
10
10
10
10
10
10
10
10
10
10
10
10
10
10
10
10
10
10
10
10
10
10
10
10
10
10
10
10
10
10
10
10
10
10
10
10
10
10
10
10
10
10
10
10
10
10
10
10
10
10
10
10
10
10
10
10
10
10
10
10
10
10
10
10
10
10
10
10
10
10
10
10
10
10
10
10
10
10
10
10
10
10
10
10
10
10
10
10
10
10
10
10
10
10
10
10
10
10
10
10
10
10
10
10
10
10
10
10
10
10
10
10
10
10
10
10
10
10
10
10
10
10
10
10
10
10
10
10
10
10
10
10
10
10
10
10
10
10
10
10
10
10
10
10
10
10
10
10
10
10
10
10
10
10
10
10
10
10
10
10
10
10
10
10
10
10
10
10
10
10
10
10
10
10
10
10
10
10
10
10
10
10
10
10
10
10
10
10
10
10
10
10
10
10
10
10
10
10
10
10
10
10
10
10
10
10
10
10
10
10
10
10
10
10
10
10
10
10
10
10
10
10
10
10
10
10
10
10
10
10
10
10
10
10
10
10
10
10
10
10
10
10
10
10
10
10
10
10
10
10
10
10
10
10
10
10
10
10
10
10
10
10
10
10
10
10
10
10
10
10
10
10
10
10
10
10
10
10
10
10
10
10
10
10
10
10
10
10
10
10
10
10
10
10
10
10
10
10
10
10
10
10
10
10
10
10
10
10
10
10
10
10
10
10
10
10
10
10
10
10
10
10
10
10
10
10
10
10
10
10
10
10
10
10
10
10
10
10
10
10
10
10
10
10
10
10
10
10
10
10
10
10
10
10
10
10
10
10
10
10
10
10
10
10
10
10
10
10
10
10
10
10
10
10
10
10
10
10
10
10
10
10
10
10
10
10
10
10
10
10
10
10
10
10
10
10
10
10
10
10
10
10
10
10
10
10
10
10
10
10
10
10
10
10
10
10
10
10
10
10
10
10
10
10
10
10
10
10
10
10
10
10
10
10
10
10
10
10
10
10
10
10
10
10
10
10
10
10
10
10
10
10
10
10
10
10
10
10
10
10
10
10
10
10
10
10
10
10
10
10
10
10
10
10
10
10
10
10
10
10
10
10
10
10
10
10
10
10
10
10
10
10
10
10
10
10
10
10
10
10
10
10
10
10
10
10
10
10
10
10
10
10
10
10
10
10
10
10
10
10
10
10
10
10
10
10
10
10
10
10
10
10
10
10
10
10
10
10
10
10
10
10
10
10
10
10
10
10
10
10
10
10
10
10
10
10
10
10
10
10
10
10
10
10
10
10
10
10
10
10
10
10
10
10
10
10
10
10
10
10
10
10
10
10
10
10
10
10
10
10
10
10
10
10
10
10
10
10
10
10
10
10
10
10
10
10

CELL_DATA 734
SCALARS potentialEnergy FLOAT 1
LOOKUP_TABLE default
58.199799
55.003391
78.917282
113.266907
126.025703
77.891647
60.555233
132.648254
227.926041
124.183701
192.323303
214.191925
118.340057
231.913177
213.382812
148.104355
112.144272
107.827942
173.232803
102.383652
201.772705
117.401398
61.877399
170.058167
237.938141
95.299706
109.127014
97.516365
140.024277
22.360765
30.296593
57.127735
91.331345
36.374159
164.573303
57.893738
230.701523
62.229828
93.716949
69.269447
84.585258
30.071266
70.478359
15.913391
41.655540
26.762463
44.808018
60.205410
37.709497
65.089157
21.353301
28.280579
30.704525
105.683922
52.390949
55.258228
76.415108
48.040710
41.055460
93.676926
96.939240
62.482742
117.957771
103.846352
58.022484
89.610916
110.136078
142.851059
139.919159
143.090836
81.418098
95.782448
145.334183
153.754562
149.239822
85.135536
211.704193
102.452393
217.077209
293.694305
205.734924
155.241699
112.471375
67.695240
160.132126
67.046867
72.313282
72.180882
155.964691
49.442574
343.262817
205.216721
87.026405
246.019852
162.940506
205.758728
120.450615
138.918640
214.208344
204.228119
94.755188
115.934608
117.490067
224.222763
144.896484
138.608444
66.830967
166.778671
121.762299
114.893654
76.779526
304.883759
186.159134
50.254414
131.054115
148.861801
205.647751
135.995392
79.087486
114.921700
113.229881
226.834396
137.039597
56.379997
38.756741
29.676760
181.659882
162.584656
132.978241
178.257935
110.335396
108.697006
81.162910
49.087170
40.879568
77.392181
30.598625
55.184067
72.996170
237.435806
153.786865
98.831367
215.676254
154.008591
94.281639
93.285530
103.900665
232.446609
186.015915
88.665169
155.985428
362.079407
164.654648
270.701752
159.349426
116.576904
62.279514
81.917122
152.375839
44.407257
67.107212
80.158829
61.056164
151.093857
97.517982
70.800835
84.103142
80.349411
50.932384
25.821956
39.874395
63.640739
106.558388
320.924561
210.714081
128.057755
69.376694
32.789820
45.521656
56.442451
46.294708
70.053722
52.571838
16.698595
173.800278
48.050732
113.583168
120.865234
86.683701
92.184860
209.391907
293.252197
92.933556
95.940277
110.315834
76.188103
44.728031
66.672882
147.070587
43.390003
61.447399
65.792255
194.302017
120.148613
22.305423
11.224646
50.160801
51.015385
56.614876
115.639603
59.728439
21.179428
83.354294
68.416210
24.520689
188.457962
154.461990
115.553261
41.952322
52.470486
36.130388
40.983688
90.701675
41.259747
44.041435
64.479572
160.851517
90.376938
50.918270
186.691437
156.881577
118.379082
62.787281
134.526505
147.579559
103.834831
201.022476
297.082977
66.661190
136.616173
151.061432
116.293343
100.571686
66.493462
61.608517
175.410126
132.863777
113.049988
118.127502
31.018618
69.404770
30.160177
82.740608
134.787651
19.283607
43.029129
38.704155
30.472633
40.761288
29.687500
48.662846
102.848457
38.982515
69.444233
108.706436
51.697701
84.001518
27.979380
43.376839
37.589348
44.281326
83.526764
110.213943
56.811935
76.383354
65.378189
18.355909
21.819761
32.274197
33.707638
27.114788
44.500919
68.183521
132.395317
62.014694
55.879761
24.387316
23.249800
22.874435
180.904694
175.199707
65.529766
72.447021
107.915970
69.108421
83.702698
221.222931
232.343384
73.543316
75.559456
81.724777
77.122826
59.575962
79.270088
96.044327
125.091751
98.377441
37.113672
60.164757
172.178970
60.700676
140.291351
14.402248
28.272129
27.068771
70.229412
63.419064
60.158443
83.141853
197.274490
198.762939
136.105499
75.687279
25.762569
85.250435
44.914715
52.285351
29.406185
96.097252
54.174015
54.562130
64.346416
66.276646
149.922501
50.017738
123.044052
119.266563
132.950035
41.413778
97.848930
132.815460
72.835136
142.019974
67.119007
62.459579
100.078331
61.300056
116.517937
69.931503
46.114014
32.867048
68.320431
92.270447
50.142921
74.800652
69.677464
16.617455
67.409481
70.606220
96.397522
102.897560
68.422424
126.575897
44.479912
197.563934
157.299652
203.979675
127.482018
103.047729
198.637329
94.457268
53.570526
153.759598
71.111259
189.797531
65.394089
90.205597
77.527275
111.807053
27.125885
79.263313
128.472794
55.038372
55.131283
39.612993
72.927372
108.515633
67.730469
72.796867
161.279221
137.597092
297.682434
97.977257
181.375732
152.466812
156.336243
38.037426
226.946243
130.605179
118.712128
94.392082
83.573654
262.612473
183.957504
145.841370
130.557678
94.818336
167.323013
80.731171
161.952606
143.587402
27.886047
84.981522
190.075668
91.640808
41.480572
46.380341
171.355560
195.167938
151.588135
94.769630
164.642685
58.354179
95.851425
79.262451
88.033165
67.040447
72.915169
54.196754
52.722309
39.568443
105.336319
77.390259
100.123741
23.386553
23.396179
28.580389
56.962143
71.889107
29.272678
73.597340
103.915047
77.202835
45.258366
69.745178
23.242684
61.838966
91.199051
28.461605
41.730133
46.911694
31.458002
14.677166
56.891407
42.471649
28.752321
25.592176
31.799219
27.526796
86.298370
157.515671
82.752632
44.049686
61.395996
102.076729
126.199104
44.087452
71.881783
48.882053
127.997139
114.525162
66.638992
102.286324
119.061127
209.964783
77.966537
248.926392
173.090622
192.537628
180.011810
101.090569
94.268394
95.011871
77.182510
45.265221
77.996361
49.393715
86.957008
57.916458
53.099449
66.295082
70.723026
48.176960
131.647110
207.321442
259.822998
126.513367
226.466782
93.908409
142.958572
43.502296
90.911957
26.683712
69.054607
44.445187
92.393005
74.507446
78.802269
141.509918
111.143105
59.965416
82.245903
77.536766
144.842499
100.361000
128.771721
97.244957
38.141632
21.651239
65.164291
31.643301
60.769859
219.490570
268.232452
137.703842
257.160355
206.725113
207.060730
97.560600
176.055634
138.372086
130.326210
174.509521
122.608597
154.482086
159.045837
213.508957
105.855591
180.785080
130.424637
57.660385
251.124115
133.809364
85.332146
60.752399
108.171776
72.433174
116.120041
81.392700
105.629608
127.897278
214.300842
70.892033
55.473965
66.013069
83.720055
71.521099
159.775620
114.090027
110.476501
42.281872
145.330200
43.946373
124.111710
56.397907
87.509651
92.048630
46.149326
57.318512
102.674232
87.865067
28.528748
76.817322
51.424034
135.109818
78.265396
139.963974
97.786903
169.140213
135.506866
284.857391
167.626419
61.850212
36.512188
33.627104
121.180557
246.813629
151.991119
121.446541
110.076569
125.697914
147.363235
188.067459
252.176178
166.294449
177.461731
183.594620
465.044006
152.829483
108.751732
74.062675
135.341469
82.396873
30.220232
109.910416
44.507092
130.833878
46.756302
282.060944
281.966522
159.733246
131.626549
77.523994
61.255207
33.475502
53.047371
39.973541
87.196419
190.389130
83.978111
36.968330
145.293839
438.334747
267.789368
418.191193
135.709740
64.174259
104.531616
125.317833
110.953644
95.575676
53.536221
68.087261
57.251957
202.114838
55.175301
32.665457
69.193233
75.905022
65.455837
108.668777
90.158440
89.895950
179.049210
172.947586
101.473183
146.386993
229.295563
140.799973
76.676796
33.114246
72.663506
96.459404
107.518082
80.179161
165.357483
125.022301
60.812073
91.446060
398.795044
77.077026
38.593052
36.646084
48.990776
43.812687
95.047455
188.246521
138.285736
196.351379
71.629967
82.862793
95.037834
84.822441
53.253429
74.206268
28.235308
62.520569
105.145248
110.159508
92.415886
89.589630
113.599976
102.657120
59.403522
75.334915
102.023094
299.351685
89.201714
46.858795
120.078178
129.524170
186.875870
68.657269
67.819111
63.718483
40.542286
122.331329
131.776215
120.095360
104.382202
391.073120
194.286743
162.166016
75.591759
44.543644
151.657501
182.866943
100.030624
115.003510
115.147507
70.497864
75.485527
91.483902
57.016907
49.615139
131.787407
155.095032
104.761261
239.868332
181.292709
281.478394
57.463684
205.302567
68.946060
145.549591
103.106483
189.400070
57.171192
419.686371
145.216583
52.750774
170.574814
91.288605
47.866867

