# vtk DataFile Version 3.1
Tetrahedral Mesh Visualization
ASCII
DATASET UNSTRUCTURED_GRID

POINTS 277 FLOAT
0.000000 1.378113 1.754166
0.000000 0.000000 0.000000
1.999831 -0.011495 -0.006082
0.000000 1.666667 0.000000
2.423299 -0.006447 1.723217
0.000000 0.000000 1.666667
1.694285 2.456096 -0.009326
3.002496 2.450379 2.304533
4.003273 5.000503 -0.016826
3.078093 4.991895 1.627000
5.214993 5.009445 1.591573
3.493775 3.175158 -0.017948
5.411361 3.312883 -0.018705
6.011645 5.006279 -0.015495
7.369261 3.330169 -0.022192
6.977612 5.004484 1.307425
9.257137 2.178176 2.006786
8.701703 4.997586 1.589610
9.355576 3.326757 -0.022993
10.667657 4.998670 1.640356
11.352259 3.328453 -0.014891
11.116868 1.865231 1.542579
10.682945 1.660885 -0.016324
12.677693 1.657948 -0.010921
13.353580 3.320875 -0.007139
12.977675 1.869332 1.481938
14.685858 1.657493 0.006204
14.013462 -0.006635 -0.002982
15.480671 2.141114 1.698124
15.343875 -0.000143 1.665131
13.336359 -0.005299 1.653849
17.299673 -0.011551 1.645647
16.692911 1.649728 0.023508
18.018379 -0.024736 0.046197
16.019806 -0.011901 0.016345
18.697918 1.644674 0.039458
19.018276 -0.008211 1.370472
20.027012 -0.015487 0.059338
16.731026 -0.004346 3.334898
18.998199 -0.014869 3.159060
17.706385 2.674336 2.984518
17.971239 -0.010934 5.044699
16.652727 1.650807 5.034873
15.966064 -0.009168 5.024506
14.678150 -0.007749 3.323484
15.771146 2.877060 3.367809
18.703716 1.682162 5.048923
17.289152 3.320831 5.037229
19.253969 3.375633 5.055508
19.320879 4.984811 3.380649
20.959129 3.675641 5.066067
21.323130 4.992429 3.402668
19.632006 2.479558 2.408002
20.674116 4.994851 1.731647
21.914721 2.500604 2.546320
22.680031 4.988103 1.755405
23.332878 3.369299 0.100067
23.976212 2.426096 2.400951
25.049639 3.651508 0.134160
25.050787 1.860991 0.135373
25.997929 2.478805 1.890806
27.324921 1.681445 0.189203
26.763115 3.371368 0.186623
29.284899 -0.032285 1.857193
28.053057 -0.018100 0.207008
29.367899 1.645369 0.247507
31.011784 -0.034508 1.609526
32.065292 -0.030777 0.311311
31.378172 1.628509 0.302371
30.059732 -0.023828 0.265328
33.344696 1.624359 0.347836
34.080856 -0.011607 0.363363
32.698051 -0.030262 1.940175
34.621655 -0.017844 2.066550
34.982277 2.376451 2.931671
36.534515 -0.019364 2.282220
35.106201 -0.028950 3.788944
36.787830 -0.025262 4.020033
38.181789 2.500033 5.556261
37.696636 2.146487 2.716058
38.300240 -0.019157 3.087122
38.103119 -0.004479 0.546552
37.883064 -0.034716 5.530725
35.897305 -0.033428 5.437804
36.453094 1.721359 5.462843
34.837658 1.299593 5.400063
34.756245 3.102520 5.396389
36.648148 3.459711 5.467764
33.914383 4.968610 5.374269
32.612923 3.263226 5.336592
33.244202 4.969392 3.695364
31.924755 4.964249 5.308927
35.117283 4.977776 3.789927
32.201359 2.570515 2.752907
34.613636 4.970236 2.074297
32.701698 3.296856 0.332220
33.180275 -0.039025 3.652206
30.962828 -0.028323 3.400416
31.232649 1.628483 5.301372
33.164101 1.564323 5.343877
30.587084 3.298746 5.277123
28.594267 3.298090 5.227170
29.252647 1.626669 5.246221
30.013470 2.465725 2.735196
27.956919 2.467285 2.689553
26.599522 3.310334 5.174142
27.254297 1.637669 5.196428
24.681921 4.976882 1.787146
22.038399 4.982954 0.086764
21.369068 3.327706 0.076493
22.770733 1.678658 0.092868
20.032970 4.981402 0.058464
19.373781 3.309233 0.051550
18.673746 4.979239 1.703539
18.034241 4.967646 0.026835
17.365793 3.307186 0.026795
16.028786 4.981349 0.015284
16.677294 4.983095 1.684872
14.671498 4.991889 1.666790
13.689188 2.948836 3.260820
12.979793 1.306706 4.986193
12.661067 -0.007715 3.315368
13.979939 -0.014676 4.991954
11.263744 1.606303 4.984711
10.657035 -0.006189 3.312734
11.982490 -0.013567 4.982480
9.985981 -0.018058 4.971234
11.327050 -0.005475 1.649581
9.313219 -0.001963 1.643687
10.006004 -0.005036 -0.023026
8.690412 1.660894 -0.020934
8.012602 4.996574 -0.021644
10.013386 4.994470 -0.017775
11.218035 2.644120 3.272237
9.256245 4.999103 3.282459
10.728510 3.308497 4.987654
11.308668 5.000303 3.313716
9.993498 4.999130 4.982876
11.993026 4.993012 4.988333
8.000139 4.995718 4.979926
8.736417 3.382164 4.977955
6.966450 5.003745 3.097119
5.358243 3.370615 4.981035
5.998306 5.002861 4.980657
7.029578 3.678354 4.982852
5.145297 2.378144 3.117036
4.617961 4.998173 3.274076
3.485667 3.187053 4.984617
3.998466 4.994219 4.987885
2.369721 4.995387 3.263897
4.850011 1.613083 -0.023851
4.914997 0.008976 1.854933
6.731107 1.657330 -0.022499
7.016494 2.569008 2.172768
8.652336 -0.005787 3.309482
17.322739 4.985651 3.362547
15.323627 4.988798 3.339075
15.975657 4.988450 5.013750
14.689089 1.600094 5.002567
15.240040 3.293015 5.008924
12.005960 -0.007694 -0.012532
15.359092 3.319542 0.007220
14.020986 4.987414 -0.001919
12.668185 4.993710 1.653028
13.321455 4.990554 3.322758
7.244999 0.002547 1.669537
6.671969 -0.002151 3.357039
4.913784 1.651655 4.977690
5.996347 -0.001705 4.977003
4.916905 0.004888 3.639229
4.003996 0.004607 4.983111
7.048845 1.884099 4.975174
7.995234 -0.009979 4.970277
9.269891 1.681818 4.977264
20.964920 1.883107 5.064211
22.664307 3.383171 5.083591
23.956223 4.990129 5.108741
24.613913 3.327944 5.120013
23.325188 4.984662 3.428241
27.314268 4.980125 3.526908
26.680109 4.984077 1.846376
25.319536 4.984129 3.469312
35.246410 1.592114 0.411620
36.932793 1.443427 0.489238
39.946564 3.230410 4.276307
39.988346 1.616374 3.252784
38.303921 4.980855 3.098878
40.025623 3.237468 2.554808
39.954140 4.989612 3.989247
37.876366 4.990097 5.540495
39.862064 4.985742 5.657007
39.863659 3.318386 5.659309
39.875576 1.644968 5.656253
39.953083 -0.014298 3.988113
40.034065 -0.008716 2.318997
40.103718 -0.003329 0.658023
40.104424 1.663492 0.659874
40.101768 3.323464 0.660719
38.405949 2.460592 0.574504
38.101700 4.989842 0.560171
40.037422 4.986377 2.322785
36.789005 4.983690 4.019572
36.533710 4.973275 2.281793
36.602097 3.164353 0.472317
36.082478 4.972635 0.447529
34.669163 3.276559 0.390263
34.069141 4.967594 0.364582
30.715990 3.293131 0.273758
30.063467 4.961781 0.250189
32.063400 4.965284 0.312752
30.670759 4.959184 1.934244
28.720507 3.321318 0.227777
26.701340 -0.027075 3.561834
27.276217 -0.017642 1.877890
25.255314 1.651460 5.145063
23.952568 -0.017181 5.116414
25.939491 -0.023525 5.166114
24.982342 -0.025770 3.812479
23.221001 1.685078 5.088434
23.265049 -0.018257 3.483465
21.257051 -0.011663 3.379350
21.960796 -0.007195 5.082997
19.971375 -0.012134 5.056064
17.970095 4.982031 5.039687
19.963814 4.990931 5.054149
22.744989 -0.018633 1.784386
25.010790 -0.026372 2.017665
24.040476 -0.022410 0.119800
26.056618 -0.015366 0.154474
26.053268 4.972859 0.161150
25.679531 2.212188 3.635660
28.674988 4.977181 1.883999
28.055193 4.976254 0.203314
25.948057 4.980861 5.156756
12.018695 4.992097 -0.014742
12.983407 3.099404 4.991714
13.980734 4.988407 4.998999
21.963224 4.995519 5.075445
28.705425 -0.031477 3.541015
29.301735 4.968305 3.565340
29.926081 4.975694 5.248866
31.284266 4.967604 3.625288
31.923428 -0.033370 5.310228
33.912434 -0.047487 5.364770
35.893749 4.981264 5.431882
32.654163 4.965472 1.998997
20.715969 1.653641 0.059536
20.737305 -0.011055 1.678150
24.049368 4.969637 0.107822
27.943071 4.975629 5.208641
40.098663 4.992100 0.655950
3.185761 1.462848 4.981382
0.000000 3.103853 1.750106
0.000000 5.000000 1.666667
0.000000 3.333333 0.000000
1.998647 4.985651 -0.011847
0.000000 5.000000 0.000000
0.000000 5.000000 3.333333
0.000000 0.000000 3.333333
1.699635 2.466664 4.986866
3.041492 -0.003784 3.371483
2.001249 -0.004219 4.984544
0.000000 2.403264 3.370902
0.000000 1.666667 5.000000
0.000000 3.333333 5.000000
0.000000 0.000000 5.000000
27.928684 -0.032362 5.216405
29.930828 -0.032764 5.266996
36.092751 -0.007820 0.443827
39.877014 -0.021308 5.655277
8.000951 -0.000267 -0.025275
2.000390 4.997301 4.986744
3.166136 1.451191 -0.012933
4.004816 0.002291 -0.013858
22.035786 -0.021028 0.087578
0.000000 5.000000 5.000000
6.004237 0.005876 -0.025598

CELLS 734 3670
4 0 1 2 3
4 0 4 2 5
4 0 3 2 6
4 4 6 0 2
4 4 6 7 0
4 8 9 10 11
4 12 13 14 15
4 16 17 14 18
4 19 20 18 21
4 20 22 21 23
4 24 25 26 23
4 25 27 26 23
4 26 28 29 30
4 28 29 31 32
4 33 34 32 31
4 31 33 35 32
4 31 33 36 35
4 33 37 36 35
4 38 39 40 31
4 41 42 43 38
4 44 42 45 38
4 44 42 38 43
4 46 38 42 41
4 46 47 40 48
4 49 50 51 52
4 53 54 51 55
4 56 54 55 57
4 56 58 59 57
4 60 59 61 62
4 63 61 64 65
4 66 67 68 69
4 67 70 71 72
4 73 74 75 76
4 74 77 75 76
4 77 78 79 80
4 79 81 75 80
4 77 78 80 82
4 77 83 76 84
4 83 85 76 84
4 85 86 74 84
4 74 86 87 84
4 88 89 86 90
4 91 89 88 90
4 86 88 90 92
4 90 86 92 74
4 86 89 74 90
4 93 94 95 74
4 70 74 72 93
4 70 73 71 72
4 74 96 73 72
4 66 97 93 72
4 96 97 72 93
4 96 98 97 93
4 85 96 74 99
4 96 98 93 99
4 98 89 100 93
4 101 102 100 103
4 104 105 101 106
4 107 58 57 60
4 58 107 57 56
4 53 108 109 55
4 56 110 109 54
4 53 111 109 108
4 112 53 109 52
4 111 112 113 53
4 112 111 113 114
4 115 116 114 117
4 40 28 115 117
4 45 117 118 28
4 119 28 25 44
4 120 44 121 122
4 123 121 124 125
4 125 123 126 124
4 127 128 21 124
4 16 129 128 21
4 16 18 14 130
4 16 17 18 19
4 131 17 132 18
4 16 19 18 21
4 133 16 19 134
4 135 134 133 136
4 135 137 136 138
4 137 134 139 140
4 141 142 143 144
4 145 146 147 7
4 142 148 147 146
4 7 146 147 149
4 10 7 9 146
4 145 150 7 151
4 152 151 150 153
4 16 128 154 124
4 124 21 121 133
4 25 28 30 44
4 28 38 45 40
4 45 47 40 42
4 155 45 156 47
4 157 156 47 155
4 155 45 40 117
4 45 42 158 159
4 44 42 43 158
4 119 45 158 159
4 120 44 158 119
4 25 127 21 121
4 25 27 160 30
4 127 25 160 30
4 25 127 121 30
4 44 25 121 30
4 28 30 44 29
4 119 28 44 45
4 119 28 118 25
4 28 24 26 161
4 26 32 29 28
4 28 31 29 38
4 46 38 41 39
4 46 38 39 40
4 28 117 40 45
4 118 28 117 161
4 162 24 118 161
4 118 119 163 164
4 136 119 164 163
4 25 133 21 163
4 128 16 21 124
4 165 166 153 154
4 166 167 168 169
4 167 168 169 170
4 171 168 172 166
4 124 173 126 154
4 123 121 133 124
4 120 125 122 121
4 122 158 44 43
4 47 46 40 42
4 52 50 174 48
4 175 50 174 54
4 176 175 177 178
4 179 60 180 181
4 64 69 63 65
4 68 72 67 66
4 70 73 182 71
4 74 79 183 75
4 184 78 185 79
4 79 184 186 187
4 186 184 188 187
4 184 189 190 191
4 184 78 79 186
4 78 189 184 191
4 189 184 190 188
4 184 78 191 192
4 184 78 192 185
4 192 78 80 185
4 193 80 194 185
4 195 81 196 194
4 81 79 196 194
4 197 187 196 198
4 187 79 185 196
4 79 184 187 185
4 197 199 187 198
4 199 197 187 200
4 199 200 187 186
4 78 201 79 186
4 189 201 87 78
4 202 201 79 74
4 201 74 92 87
4 201 202 92 74
4 201 202 79 186
4 202 203 74 79
4 202 198 203 79
4 204 202 199 203
4 202 203 205 74
4 202 204 205 203
4 182 203 74 205
4 74 203 183 79
4 79 203 183 198
4 79 81 198 183
4 81 79 198 196
4 187 79 196 198
4 202 198 79 186
4 202 204 94 205
4 94 95 205 206
4 207 208 209 210
4 208 207 211 210
4 104 103 211 65
4 104 60 212 213
4 214 215 216 217
4 218 219 220 221
4 222 174 220 221
4 46 39 222 174
4 52 46 40 48
4 40 49 52 48
4 53 49 52 113
4 40 49 155 113
4 155 45 47 40
4 157 47 223 155
4 49 223 224 48
4 52 50 51 54
4 175 54 57 178
4 218 175 54 57
4 225 219 54 57
4 218 175 57 177
4 57 217 219 218
4 219 225 226 57
4 225 227 226 57
4 59 110 57 227
4 59 60 61 228
4 61 60 213 228
4 64 61 213 228
4 63 61 213 64
4 61 104 211 65
4 180 60 104 62
4 58 229 62 180
4 58 60 180 62
4 60 61 104 62
4 60 226 230 212
4 226 60 213 212
4 60 104 212 230
4 179 60 230 104
4 104 211 231 62
4 180 229 62 232
4 180 232 62 231
4 179 60 104 180
4 233 181 105 179
4 181 105 179 230
4 105 214 106 230
4 105 214 230 177
4 215 214 218 217
4 215 217 218 219
4 218 215 219 221
4 218 175 174 54
4 39 52 220 174
4 39 46 52 174
4 115 52 112 35
4 28 115 117 161
4 162 118 116 161
4 24 162 118 163
4 20 19 234 163
4 25 133 163 119
4 120 119 158 235
4 236 119 235 159
4 235 119 158 159
4 119 235 133 136
4 138 235 236 164
4 45 47 42 159
4 46 38 40 42
4 49 50 52 48
4 237 175 176 178
4 181 233 177 176
4 180 179 231 104
4 207 103 65 211
4 207 103 68 65
4 65 66 103 68
4 103 66 97 93
4 66 103 97 63
4 213 104 63 238
4 238 97 103 63
4 104 102 103 238
4 104 106 212 230
4 214 212 106 230
4 214 212 216 106
4 214 212 217 216
4 214 212 230 217
4 226 217 230 212
4 226 60 230 57
4 181 60 57 230
4 179 105 104 230
4 179 105 101 104
4 104 239 103 101
4 239 101 240 100
4 91 241 240 100
4 241 239 240 100
4 239 241 103 100
4 103 210 93 241
4 103 207 93 210
4 210 103 231 239
4 103 239 104 231
4 103 104 63 65
4 65 66 63 103
4 65 66 68 69
4 68 72 66 93
4 96 98 242 97
4 85 96 99 243
4 85 86 99 74
4 86 89 99 74
4 88 86 244 92
4 74 86 92 87
4 201 244 87 92
4 244 86 87 92
4 90 74 92 94
4 94 95 206 245
4 95 209 206 245
4 245 207 95 209
4 208 232 231 211
4 180 104 231 62
4 181 60 107 57
4 54 175 51 178
4 50 52 174 54
4 246 36 52 247
4 246 36 37 35
4 52 31 36 35
4 31 39 52 36
4 39 46 222 41
4 39 222 174 220
4 174 218 220 221
4 218 219 54 220
4 225 219 220 54
4 56 110 54 57
4 110 56 59 57
4 60 59 226 228
4 60 226 213 228
4 57 217 230 226
4 214 217 230 218
4 218 57 230 177
4 181 105 230 177
4 179 60 181 230
4 58 107 180 60
4 229 107 58 248
4 229 107 180 58
4 60 58 59 62
4 58 107 56 248
4 108 56 109 55
4 108 56 55 248
4 107 56 55 57
4 107 181 57 178
4 57 181 177 178
4 181 176 177 178
4 233 181 177 105
4 249 239 101 240
4 91 89 241 100
4 89 91 241 90
4 210 245 93 241
4 245 241 90 93
4 93 94 90 245
4 74 202 92 94
4 205 204 94 206
4 202 198 199 203
4 202 198 186 199
4 199 197 200 250
4 199 186 187 198
4 200 186 188 187
4 184 189 186 188
4 201 189 87 244
4 189 201 78 186
4 201 78 79 87
4 189 78 184 186
4 186 79 187 198
4 74 201 79 87
4 74 79 84 87
4 79 78 84 87
4 77 78 84 79
4 74 77 84 79
4 74 85 84 76
4 83 243 76 85
4 85 96 243 76
4 73 96 74 76
4 96 93 74 99
4 89 93 99 74
4 93 94 74 90
4 93 94 245 95
4 207 95 68 93
4 95 70 68 93
4 95 70 74 205
4 74 70 182 205
4 94 95 74 205
4 241 89 90 93
4 104 179 231 239
4 181 60 180 107
4 107 57 55 178
4 57 54 55 178
4 53 49 51 52
4 40 49 113 52
4 155 47 223 48
4 45 47 159 156
4 119 156 45 159
4 120 44 119 121
4 16 173 124 154
4 166 167 169 145
4 145 7 147 251
4 9 7 252 149
4 253 254 252 255
4 256 253 255 254
4 6 9 252 255
4 253 257 149 252
4 7 258 259 260
4 260 261 251 170
4 169 260 251 170
4 169 251 167 170
4 166 167 145 171
4 16 22 18 130
4 25 24 20 23
4 24 25 118 28
4 119 156 118 45
4 119 28 45 118
4 119 45 44 158
4 44 38 28 29
4 25 28 26 30
4 25 24 26 28
4 24 20 234 163
4 162 24 234 163
4 163 119 118 25
4 235 135 133 136
4 135 134 140 133
4 145 141 153 144
4 145 260 169 151
4 0 258 4 5
4 259 258 262 263
4 264 259 262 263
4 258 7 262 0
4 260 258 259 261
4 258 261 263 259
4 261 258 263 265
4 261 260 251 259
4 167 251 169 145
4 145 260 251 169
4 166 167 171 168
4 16 171 153 140
4 137 135 136 134
4 138 135 235 136
4 235 138 136 164
4 236 119 156 164
4 157 156 159 47
4 155 47 48 40
4 40 49 48 155
4 46 52 174 48
4 247 225 220 54
4 110 225 57 227
4 60 59 57 226
4 104 61 211 62
4 232 211 62 231
4 103 104 211 231
4 239 210 103 241
4 241 93 103 100
4 68 72 93 70
4 103 207 68 93
4 207 103 211 210
4 210 208 231 211
4 103 210 231 211
4 245 207 210 93
4 245 207 209 210
4 245 207 93 95
4 70 95 74 93
4 70 73 74 182
4 182 203 183 74
4 202 74 205 94
4 93 89 90 74
4 89 241 100 93
4 93 98 103 100
4 101 104 102 103
4 104 101 102 106
4 106 238 104 212
4 266 216 212 106
4 106 238 212 266
4 106 238 102 104
4 267 266 238 102
4 97 102 267 238
4 106 238 266 102
4 97 102 238 103
4 97 102 103 98
4 97 102 98 267
4 97 98 242 267
4 96 98 99 242
4 89 98 99 93
4 239 101 100 103
4 104 179 239 101
4 179 249 239 101
4 105 179 101 249
4 233 105 249 179
4 177 181 57 230
4 175 57 177 178
4 175 237 51 178
4 55 54 51 178
4 112 111 109 53
4 112 53 52 113
4 117 115 113 114
4 116 118 117 161
4 115 116 117 161
4 28 115 161 32
4 29 32 26 34
4 26 30 29 27
4 34 26 29 27
4 29 34 31 32
4 31 115 32 35
4 31 115 28 32
4 246 112 52 35
4 246 247 52 54
4 247 110 225 54
4 59 227 57 226
4 213 104 238 212
4 104 103 63 238
4 97 98 103 93
4 70 73 72 74
4 71 182 268 73
4 182 75 268 73
4 182 75 183 268
4 183 81 268 75
4 182 75 74 183
4 79 81 183 75
4 79 81 80 194
4 78 192 80 82
4 192 193 80 82
4 269 193 192 82
4 193 192 80 185
4 80 79 194 185
4 77 74 75 79
4 85 96 76 74
4 96 243 242 99
4 98 102 103 100
4 104 105 106 230
4 214 218 230 177
4 50 175 51 54
4 49 155 223 48
4 157 156 236 159
4 236 119 159 156
4 235 119 164 136
4 236 119 164 235
4 133 235 120 123
4 120 235 133 119
4 135 123 235 133
4 124 173 123 126
4 173 172 126 154
4 166 171 154 172
4 172 171 154 173
4 171 16 154 173
4 171 166 154 153
4 16 171 154 153
4 124 173 16 133
4 124 173 133 123
4 25 133 119 121
4 19 16 133 21
4 163 19 133 21
4 134 19 133 136
4 133 119 136 163
4 133 19 163 136
4 132 20 18 19
4 20 132 234 19
4 20 19 163 21
4 22 20 21 18
4 16 22 21 18
4 128 129 127 21
4 160 129 21 127
4 160 21 25 127
4 25 20 21 23
4 25 27 23 160
4 25 27 30 26
4 23 22 21 160
4 16 129 21 22
4 128 130 165 270
4 128 130 270 129
4 128 130 16 165
4 16 165 153 154
4 17 16 14 153
4 131 17 18 14
4 17 141 153 15
4 12 10 15 153
4 15 17 14 153
4 153 16 14 130
4 16 129 22 130
4 128 130 129 16
4 16 128 165 154
4 151 166 153 165
4 260 145 7 151
4 9 6 252 7
4 7 262 252 149
4 260 259 7 251
4 7 259 147 251
4 264 259 271 149
4 259 7 147 149
4 146 148 147 149
4 271 259 147 149
4 148 271 147 149
4 146 142 143 141
4 144 141 140 139
4 141 134 140 139
4 143 141 144 139
4 142 145 141 146
4 145 142 141 144
4 148 142 143 146
4 145 7 10 146
4 145 150 151 153
4 151 272 150 7
4 151 272 273 150
4 151 272 4 273
4 4 272 2 273
4 151 272 7 4
4 4 260 7 151
4 166 145 151 153
4 166 145 169 151
4 171 166 153 145
4 133 16 140 173
4 124 16 21 133
4 25 21 160 23
4 21 129 160 22
4 121 21 124 127
4 121 120 133 119
4 123 121 125 120
4 123 121 120 133
4 25 133 121 21
4 25 20 163 21
4 118 24 28 161
4 26 28 161 32
4 40 115 28 31
4 115 52 113 112
4 246 112 109 52
4 246 52 109 54
4 56 54 109 55
4 56 107 55 248
4 58 60 59 57
4 63 61 65 104
4 68 72 70 67
4 182 75 73 74
4 77 79 75 80
4 196 79 185 194
4 79 78 185 80
4 77 78 82 84
4 83 77 82 84
4 77 74 84 76
4 96 74 93 72
4 103 66 93 68
4 65 66 69 63
4 63 61 104 213
4 61 60 104 213
4 59 227 226 228
4 274 110 227 225
4 246 36 247 37
4 246 36 35 52
4 52 115 40 31
4 28 31 38 40
4 44 42 158 45
4 120 44 122 158
4 135 133 140 173
4 171 16 173 140
4 171 144 153 140
4 141 144 140 153
4 10 141 15 153
4 10 12 15 13
4 10 8 12 13
4 8 10 12 11
4 8 9 11 255
4 9 253 149 252
4 257 262 149 252
4 262 259 149 7
4 258 7 4 260
4 259 258 7 262
4 262 0 7 252
4 0 6 7 252
4 254 6 252 255
4 0 3 6 252
4 6 3 254 252
4 272 6 11 7
4 4 6 272 7
4 4 6 2 272
4 9 6 11 255
4 9 253 252 255
4 262 264 257 149
4 257 264 275 271
4 259 264 262 149
4 257 264 271 149
4 9 146 7 149
4 10 7 11 9
4 7 12 10 11
4 145 150 153 12
4 12 145 10 153
4 145 146 10 141
4 145 142 147 146
4 171 145 153 144
4 171 142 145 144
4 142 171 145 167
4 142 145 147 167
4 167 145 147 251
4 145 260 7 251
4 145 150 12 7
4 12 145 7 10
4 12 152 153 14
4 152 153 14 130
4 152 151 153 165
4 165 152 276 270
4 152 151 165 276
4 165 152 270 130
4 152 151 276 150
4 276 150 151 273
4 272 7 11 150
4 7 12 11 150
4 153 150 152 12
4 165 16 153 130
4 165 152 130 153
4 15 12 153 14
4 13 131 14 15
4 17 131 15 14
4 17 132 18 19
4 25 24 163 20
4 25 24 118 163
4 119 156 164 118
4 118 117 45 156
4 155 45 117 156
4 113 40 117 155
4 50 49 224 48
4 49 50 224 51
4 50 237 224 51
4 237 50 175 51
4 52 54 220 174
4 52 247 220 54
4 39 247 220 52
4 39 247 52 36
4 115 52 35 31
4 40 115 52 113
4 40 115 113 117
4 115 112 113 114
4 53 52 51 54
4 54 53 109 55
4 52 53 109 54
4 110 246 109 54
4 247 110 54 246
4 247 110 274 225
4 246 274 37 247
4 247 110 246 274
4 110 225 54 57
4 57 217 226 219
4 57 217 218 230
4 219 218 54 57
4 218 54 174 220
4 46 39 52 40
4 39 31 52 40
4 38 42 45 40
4 28 38 44 45
4 121 25 44 119
4 123 135 173 133
4 134 153 140 16
4 134 16 140 133
4 137 135 134 140
4 134 153 141 140
4 134 153 16 17
4 16 17 19 134
4 134 153 17 141
4 153 145 10 141
4 6 9 11 7
4 258 7 0 4
4 1 0 2 5

CELL_TYPES 734
10
10
10
10
10
10
10
10
10
10
10
10
10
10
10
10
10
10
10
10
10
10
10
10
10
10
10
10
10
10
10
10
10
10
10
10
10
10
10
10
10
10
10
10
10
10
10
10
10
10
10
10
10
10
10
10
10
10
10
10
10
10
10
10
10
10
10
10
10
10
10
10
10
10
10
10
10
10
10
10
10
10
10
10
10
10
10
10
10
10
10
10
10
10
10
10
10
10
10
10
10
10
10
10
10
10
10
10
10
10
10
10
10
10
10
10
10
10
10
10
10
10
10
10
10
10
10
10
10
10
10
10
10
10
10
10
10
10
10
10
10
10
10
10
10
10
10
10
10
10
10
10
10
10
10
10
10
10
10
10
10
10
10
10
10
10
10
10
10
10
10
10
10
10
10
10
10
10
10
10
10
10
10
10
10
10
10
10
10
10
10
10
10
10
10
10
10
10
10
10
10
10
10
10
10
10
10
10
10
10
10
10
10
10
10
10
10
10
10
10
10
10
10
10
10
10
10
10
10
10
10
10
10
10
10
10
10
10
10
10
10
10
10
10
10
10
10
10
10
10
10
10
10
10
10
10
10
10
10
10
10
10
10
10
10
10
10
10
10
10
10
10
10
10
10
10
10
10
10
10
10
10
10
10
10
10
10
10
10
10
10
10
10
10
10
10
10
10
10
10
10
10
10
10
10
10
10
10
10
10
10
10
10
10
10
10
10
10
10
10
10
10
10
10
10
10
10
10
10
10
10
10
10
10
10
10
10
10
10
10
10
10
10
10
10
10
10
10
10
10
10
10
10
10
10
10
10
10
10
10
10
10
10
10
10
10
10
10
10
10
10
10
10
10
10
10
10
10
10
10
10
10
10
10
10
10
10
10
10
10
10
10
10
10
10
10
10
10
10
10
10
10
10
10
10
10
10
10
10
10
10
10
10
10
10
10
10
10
10
10
10
10
10
10
10
10
10
10
10
10
10
10
10
10
10
10
10
10
10
10
10
10
10
10
10
10
10
10
10
10
10
10
10
10
10
10
10
10
10
10
10
10
10
10
10
10
10
10
10
10
10
10
10
10
10
10
10
10
10
10
10
10
10
10
10
10
10
10
10
10
10
10
10
10
10
10
10
10
10
10
10
10
10
10
10
10
10
10
10
10
10
10
10
10
10
10
10
10
10
10
10
10
10
10
10
10
10
10
10
10
10
10
10
10
10
10
10
10
10
10
10
10
10
10
10
10
10
10
10
10
10
10
10
10
10
10
10
10
10
10
10
10
10
10
10
10
10
10
10
10
10
10
10
10
10
10
10
10
10
10
10
10
10
10
10
10
10
10
10
10
10
10
10
10
10
10
10
10
10
10
10
10
10
10
10
10
10
10
10
10
10
10
10
10
10
10
10
10
10
10
10
10
10
10
10
10
10
10
10
10
10
10
10
10
10
10
10
10
10
10
10
10
10
10
10
10
10
10
10
10
10
10
10
10
10
10
10
10
10
10
10
10
10
10
10
10
10
10
10
10
10
10
10
10
10
10
10
10
10
10
10
10
10
10
10
10
10
10
10
10
10
10
10
10
10
10
10
10
10
10
10
10
10
10
10
10
10
10
10
10
10
10
10
10
10
10
10
10
10
10
10
10
10
10
10
10
10
10
10
10
10
10
10
10

CELL_DATA 734
SCALARS potentialEnergy FLOAT 1
LOOKUP_TABLE default
33.636208
55.606571
77.259392
52.901466
83.104202
42.467258
23.352324
61.984768
154.132050
24.832321
70.309692
84.566643
81.114662
83.571220
61.470360
38.836605
68.283936
79.503998
59.350338
43.959751
53.576962
51.185890
73.077023
59.401836
90.876961
62.520721
66.721519
117.356743
291.905334
174.423782
47.917683
285.236877
190.201416
92.164368
128.898872
144.919876
143.818344
151.388214
121.395920
217.613480
231.430649
101.392448
72.269833
219.419510
282.291595
178.976013
106.635056
86.608383
140.064438
158.446106
79.170479
44.076511
359.714996
249.545944
186.292374
216.307770
158.571350
125.467430
102.153702
286.164154
60.665199
85.958633
72.803219
101.238480
43.612148
44.969276
89.436180
108.513504
181.980621
78.716110
60.835831
51.736038
53.183491
36.073500
44.858192
44.639309
38.909895
21.758255
31.730238
38.768553
36.148987
24.679970
44.224251
26.919399
60.895206
44.413013
30.437965
97.395180
46.076309
46.708729
23.137129
54.078026
48.756126
70.085815
59.041588
43.375385
29.017687
31.227652
101.374672
73.867111
14.143741
94.161278
108.384827
56.341732
42.746513
51.133945
17.172800
69.380306
21.090072
76.023384
37.675785
91.979080
119.707870
67.185749
100.570129
214.394440
91.143982
104.313683
18.378719
44.468983
43.915188
50.236668
52.010715
26.957237
59.215790
52.634815
73.772865
88.498772
27.689808
141.613068
60.561108
74.757263
78.091957
64.137215
149.628647
137.220184
59.232960
289.821014
175.178162
205.293091
191.835815
142.327896
83.356705
308.384064
206.085846
112.934746
151.435379
146.818710
337.336426
141.123016
134.614716
260.323761
108.318939
210.436829
120.842102
149.419373
124.286026
145.232056
550.183533
137.206894
127.418709
85.368202
56.721962
356.322266
702.697632
531.825989
661.506958
501.370422
274.962006
328.415314
152.546371
239.597046
228.370193
381.195404
176.810257
573.239014
123.406487
94.915298
57.539093
162.511215
76.832542
77.355461
124.246635
51.137642
135.492859
41.462877
62.963814
96.564316
114.509125
38.994251
74.519264
81.823837
72.577839
128.332314
104.892342
133.654739
65.458252
103.417740
142.490738
117.962059
67.099323
200.174728
134.984100
106.830269
37.282146
38.789890
78.403534
99.693069
93.004387
309.264008
125.267838
57.107834
69.560780
50.794167
68.336258
99.694405
52.984276
30.417437
86.361885
178.947769
53.203224
77.349350
88.394875
137.761719
70.679077
88.428291
96.796394
30.794781
98.450279
149.285889
125.222847
58.038425
19.994970
18.536461
56.757519
86.048897
126.659363
141.220322
91.326927
116.375153
27.191393
103.714508
174.124756
73.771397
53.791714
144.505844
150.613281
198.276672
265.750046
45.803864
38.565956
220.338272
39.413908
80.283249
61.430119
148.012222
119.259712
101.375320
114.834587
130.318291
55.529850
97.233849
49.680714
140.974854
431.050201
123.082710
35.302673
32.122702
31.791594
52.814625
87.459824
98.447212
83.707352
179.634628
72.075005
86.095139
77.426506
112.440956
129.251633
162.065308
146.090820
271.595642
279.616241
58.869518
118.753677
250.175430
86.802299
61.096157
36.030449
107.689774
67.283379
100.099480
77.913246
81.806969
58.741024
35.490143
97.003296
35.800303
69.831726
51.151226
134.683250
92.922653
53.162823
80.732971
374.894653
134.176460
45.849937
105.167900
175.354401
97.662605
352.159729
88.039299
164.934387
67.527206
104.715515
101.086533
55.867340
65.504063
104.797005
75.762321
92.552246
90.262413
47.257923
197.589844
204.681763
23.777949
65.270519
77.282936
51.089260
164.059479
304.819672
197.426712
481.521667
545.878662
165.804047
216.235306
29.197317
85.588661
148.260452
221.068665
399.013184
118.805847
330.419098
228.533951
199.369095
213.477936
197.322113
195.128571
285.197845
114.595169
184.401245
231.942276
170.257065
57.280151
101.990685
42.947021
104.396225
85.091263
111.342140
294.115875
129.928024
85.566628
151.306259
169.519455
43.970848
43.639584
41.690836
82.956512
59.225491
46.838161
19.167292
39.370605
21.758647
32.649982
46.862839
115.313751
77.283119
66.647491
88.030846
41.994879
120.700584
37.248322
38.159466
36.313267
53.606468
31.371962
28.293781
85.714775
123.485817
41.545042
113.460014
88.220039
78.989082
52.330215
69.806393
36.488628
43.067604
72.265499
77.968056
29.576307
50.113411
58.309578
58.850147
43.639866
122.503952
110.293602
61.717651
55.515518
41.056347
32.115843
37.381447
50.252682
59.308327
33.899584
26.845381
27.062473
147.289581
17.295970
80.965851
85.573975
93.815369
99.086342
112.888870
109.072739
87.509537
43.715935
133.563347
34.570328
99.894836
152.437866
52.683887
390.729980
87.353294
163.249115
61.553463
40.785074
83.671959
199.093445
408.831787
156.636612
334.431274
118.360329
104.745155
106.376701
73.079090
30.159002
51.258270
97.456825
104.053680
64.344250
46.257767
39.171581
58.338280
65.438278
126.995461
99.653923
88.304596
94.007027
131.115379
250.337967
184.296158
117.430984
56.227829
56.173046
324.398773
120.706345
69.065636
24.044532
36.822397
109.951965
174.710678
42.067421
63.999290
58.980282
67.311600
62.684879
104.178345
162.091827
52.087479
53.838009
138.227020
52.090549
40.834715
147.031631
105.229668
26.871885
110.102989
198.604675
121.280869
119.754333
95.525848
186.151062
194.257507
181.658646
213.758484
400.620789
297.783142
187.572647
129.923996
102.925049
102.013115
152.752258
105.552307
66.069939
78.104370
146.695251
85.998474
47.020725
102.217964
71.654076
50.806084
36.513281
32.888887
135.195526
47.003483
109.622078
87.996056
64.536739
34.326647
53.206707
117.367310
53.927826
80.730637
66.793648
55.440765
40.008377
31.868299
55.433857
45.961834
81.223564
28.201103
32.472311
39.677820
92.449791
16.284949
58.827217
125.752525
36.578707
47.263638
99.366692
20.664826
16.786165
33.281698
19.713520
32.936949
35.225292
55.254154
59.691689
31.481590
63.399044
39.930031
41.815964
13.955523
63.733257
27.511219
40.769848
57.519764
115.392792
122.208527
102.714035
63.268753
31.878874
66.073502
37.224430
28.262463
20.716161
18.260828
23.629181
25.320313
27.600752
26.323469
49.445770
25.377048
28.308271
101.967545
20.778375
107.417709
72.902245
79.222961
72.390385
122.622269
106.373299
80.454430
67.032249
72.413677
51.099709
110.458794
19.415580
29.810074
38.817776
55.265892
34.706100
58.010956
62.505116
37.825415
89.534409
66.664158
106.719879
70.674599
130.600372
124.566353
164.855118
36.465696
166.813141
54.885658
56.083122
353.377625
95.311363
141.404739
273.164062
138.416260
111.278389
38.489845
37.094046
92.922882
50.681812
75.886803
57.056149
226.353439
45.395176
43.980927
99.919434
126.419113
85.834213
86.379181
31.956011
39.811552
155.123520
71.502186
104.610611
41.318289
23.873817
74.038048
28.831877
48.905205
61.287075
52.343998
121.514534
69.219498
101.443466
91.717583
82.190536
86.424194
65.457249
63.455601
93.975777
85.595116
126.239220
53.591434
79.420181
53.182442
35.456013
69.311111
42.764988
48.611794
118.316734
50.458824
57.067783
18.332399
74.648743
44.690468
23.679748
27.243435
55.245956
34.703159
33.566044
63.867958
48.737167
79.819984
29.438084
33.255884
58.526253
20.894148
28.077057
19.270991
38.487370
35.743231
125.166100
43.221954
44.096214
41.997345
52.817883
38.073963
34.699339
35.082195
31.490204
62.146759
60.031013
14.292846
48.100418
31.992239
78.110695
72.734936
48.539970
101.050034
40.186844
57.295994
23.123987
20.883306
44.914993
83.452026
65.733498
37.369228
71.408550
38.322191
109.029526
139.418427
121.932022
42.774292
35.913240
60.965679
56.374744
67.587460
117.715347
154.515610
152.787064
221.276779
63.530144
12.431571
81.287437
119.194397
65.332916
77.541748
81.022652
81.727013
104.850792
77.455208
57.636204
25.779455
67.401249
48.004738
104.916420
96.229698
28.569145

