# vtk DataFile Version 3.1
Tetrahedral Mesh Visualization
ASCII
DATASET UNSTRUCTURED_GRID

POINTS 277 FLOAT
0.000000 1.378113 1.754166
0.000000 0.000000 0.000000
1.998500 -0.002736 -0.016836
0.000000 1.666667 0.000000
2.419475 0.001367 1.714825
0.000000 0.000000 1.666667
1.689277 2.468399 -0.018294
2.999994 2.459209 2.291772
3.983503 5.008134 -0.048198
3.069498 5.005669 1.612541
5.195669 5.001632 1.551355
3.475487 3.181260 -0.044944
5.388486 3.307746 -0.058589
5.979880 5.005904 -0.064945
7.346296 3.338747 -0.078205
6.955307 5.011076 1.248902
9.251203 2.195677 1.930163
8.682378 5.016432 1.518765
9.331269 3.350474 -0.097750
10.652665 5.009491 1.556513
11.329375 3.340290 -0.105829
11.106899 1.874691 1.447306
10.657703 1.675339 -0.103502
12.662398 1.670835 -0.112598
13.330606 3.335493 -0.112167
12.969984 1.881124 1.379962
14.664446 1.669414 -0.118215
13.991595 0.002955 -0.115612
15.469491 2.147302 1.567593
15.332577 0.004973 1.537323
13.330297 0.007213 1.547585
17.291985 0.004991 1.492635
16.669096 1.667801 -0.120246
18.002604 0.006755 -0.107806
15.994947 0.001854 -0.120321
18.675507 1.685086 -0.119950
19.007523 0.021447 1.207667
20.004824 0.022477 -0.107816
16.740377 0.008371 3.187561
19.008545 0.016407 2.994507
17.706043 2.691804 2.825775
18.007271 0.003240 4.882192
16.688850 1.662357 4.887595
16.001406 -0.002516 4.879638
14.688042 0.014615 3.205717
15.778375 2.893215 3.234730
18.737209 1.703299 4.883080
17.320127 3.334057 4.883642
19.284536 3.399083 4.883050
19.319832 5.016060 3.212549
20.992556 3.701075 4.887323
21.322634 5.027442 3.221871
19.627241 2.517113 2.238139
20.659451 5.036624 1.556351
21.910419 2.536647 2.369084
22.661568 5.030541 1.561601
23.300636 3.417341 -0.097444
23.969862 2.468160 2.195173
25.015547 3.705987 -0.092527
25.012074 1.914958 -0.091217
25.986080 2.520581 1.647076
27.287695 1.704268 -0.063063
26.728336 3.401389 -0.066658
29.285484 -0.002898 1.576557
28.026590 0.002453 -0.050133
29.338331 1.666506 -0.034021
31.013182 0.010716 1.308532
32.037842 0.023721 -0.010813
31.337954 1.679053 -0.011619
30.042938 0.006412 -0.023718
33.298851 1.706062 -0.025774
34.036263 0.064360 -0.021856
32.708244 0.048102 1.594665
34.623180 0.070134 1.666334
34.990387 2.478217 2.509640
36.531803 0.088587 1.807084
35.153351 0.078349 3.371473
36.841061 0.101355 3.534412
38.278713 2.635949 4.983072
37.690399 2.271914 2.166588
38.317608 0.113392 2.529224
38.030560 0.102869 -0.005772
38.003128 0.110819 4.989999
36.007797 0.090622 4.989594
36.551189 1.846936 4.984573
34.926132 1.404235 4.979486
34.829533 3.194198 4.977242
36.730854 3.579640 4.976641
33.967491 5.047754 4.980693
32.674515 3.332190 4.993810
33.248547 5.042013 3.329384
31.967342 5.018486 4.991385
35.127697 5.072030 3.363855
32.203648 2.638988 2.414253
34.572807 5.062338 1.661555
32.642246 3.369236 -0.028387
33.220627 0.049892 3.293907
30.994553 0.022616 3.100711
31.300940 1.683961 4.985810
33.238235 1.645302 4.985348
30.643328 3.342181 4.975660
28.636377 3.337729 4.956466
29.303129 1.670886 4.961386
30.016504 2.499122 2.447491
27.957428 2.494953 2.424881
26.639524 3.348658 4.918618
27.299417 1.673791 4.931610
24.661882 5.024475 1.563295
22.005997 5.033309 -0.103053
21.342941 3.376112 -0.100639
22.736889 1.725863 -0.102033
20.003273 5.024616 -0.115820
19.345297 3.355342 -0.117455
18.655880 5.013237 1.540872
17.998526 5.008912 -0.125925
17.337481 3.335720 -0.125227
16.000727 4.993970 -0.120456
16.659939 4.997764 1.545224
14.659185 5.001928 1.554829
13.695217 2.972533 3.156411
13.011401 1.330095 4.884649
12.676435 0.008531 3.214821
14.010280 0.010772 4.883673
11.294711 1.615112 4.891695
10.668234 0.008399 3.223150
12.019632 0.001792 4.886828
10.024434 -0.000424 4.894082
11.322572 0.008735 1.554460
9.302067 0.016345 1.570404
9.980756 0.009625 -0.102436
8.668995 1.678741 -0.092608
7.981816 5.011598 -0.085571
9.989411 5.014391 -0.096203
11.225039 2.648503 3.178346
9.246472 5.011525 3.204833
10.746034 3.311501 4.895073
11.300462 5.007344 3.221497
9.998430 4.998430 4.903352
11.994959 5.008124 4.891246
8.000914 5.000304 4.914353
8.750219 3.392552 4.904984
6.956248 5.008137 3.035970
5.369884 3.363242 4.946666
6.007918 4.996173 4.939862
7.040430 3.678233 4.922088
5.145199 2.371556 3.089227
4.619098 4.995607 3.245168
3.493628 3.188847 4.968080
4.011268 4.990789 4.964982
2.369743 5.002251 3.256526
4.828245 1.607654 -0.042782
4.901015 -0.001985 1.839058
6.707141 1.658221 -0.072099
7.008543 2.572814 2.116573
8.665156 0.011320 3.244810
17.328217 5.003613 3.214335
15.330909 5.007654 3.216576
16.005016 4.999443 4.886897
14.723055 1.619140 4.883994
15.273738 3.308037 4.885097
11.987104 0.006940 -0.113638
15.331851 3.331746 -0.119430
13.996144 5.001647 -0.108646
12.654222 5.001078 1.557862
13.319560 5.007371 3.225618
7.235062 0.013610 1.618574
6.680743 0.003839 3.313629
4.927458 1.645531 4.947641
6.019786 0.006149 4.943516
4.919081 0.004615 3.619901
4.008860 0.007998 4.967456
7.072850 1.885283 4.920759
8.025951 0.002316 4.914018
9.296460 1.694478 4.904304
20.997787 1.907450 4.886538
22.700396 3.414672 4.889375
23.991135 5.034682 4.887963
24.652309 3.369921 4.895467
23.323904 5.025460 3.224451
27.320858 5.010002 3.265902
26.668417 5.016409 1.591355
25.322502 5.027922 3.230365
35.184013 1.679674 -0.027990
36.859978 1.549063 -0.019715
39.984581 3.364275 3.604280
40.002117 1.747078 2.593978
38.281002 5.107275 2.505863
39.995007 3.364413 1.878438
39.972916 5.116090 3.317842
37.960033 5.113194 4.971653
39.958382 5.120083 4.986997
39.976482 3.455953 4.984862
39.992275 1.792965 4.997733
40.008053 0.121554 3.339995
40.017452 0.119827 1.672364
40.026337 0.112658 0.009997
40.012905 1.782806 -0.008002
40.003159 3.456414 -0.013752
38.317387 2.578732 -0.020409
37.984360 5.111271 -0.024137
39.979591 5.117569 1.653930
36.805367 5.094118 3.514656
36.487648 5.093864 1.788657
36.515827 3.270671 -0.028521
35.984928 5.086562 -0.033936
34.601547 3.369722 -0.036584
33.985275 5.056910 -0.032851
30.667969 3.339460 -0.026104
30.012461 5.001647 -0.037806
31.990660 5.032154 -0.031189
30.651241 5.008405 1.641781
28.684149 3.339239 -0.041375
26.715660 0.008009 3.312215
27.273403 0.011941 1.628335
25.297586 1.690843 4.906946
23.998333 0.011334 4.897710
25.981035 0.017608 4.926487
24.999237 0.009594 3.580861
23.260559 1.716836 4.889143
23.276506 0.016921 3.280084
21.265888 0.016406 3.198865
22.003721 0.015062 4.889102
20.006218 0.011358 4.885948
17.992155 5.002225 4.884968
19.986383 5.009503 4.885833
22.735111 0.025165 1.588982
25.004122 0.016117 1.790901
24.007277 0.030053 -0.093070
26.021048 0.020558 -0.074608
26.025661 5.016914 -0.081337
25.692362 2.253866 3.395244
28.666014 5.001921 1.621475
28.024691 5.000547 -0.055575
25.983593 5.028316 4.899917
11.994880 4.999529 -0.108502
13.003781 3.123808 4.887807
14.004511 5.004580 4.886666
21.995085 5.022797 4.888618
28.731251 0.001369 3.264997
29.312761 5.000816 3.297373
29.969446 5.005025 4.975348
31.293167 5.019573 3.318595
32.003490 0.036840 4.984036
34.008053 0.050340 4.976471
35.959892 5.090292 4.969066
32.625149 5.044871 1.645031
20.688692 1.703884 -0.116133
20.729195 0.030317 1.501047
24.009369 5.023171 -0.103300
27.976900 5.013064 4.944656
39.992481 5.121285 -0.006883
3.189039 1.470537 4.970471
0.000000 3.103853 1.750106
0.000000 5.000000 1.666667
0.000000 3.333333 0.000000
1.996877 5.003375 -0.024393
0.000000 5.000000 0.000000
0.000000 5.000000 3.333333
0.000000 0.000000 3.333333
1.702131 2.474872 4.980757
3.038848 0.008333 3.365136
2.000259 0.015608 4.989026
0.000000 2.403264 3.370902
0.000000 1.666667 5.000000
0.000000 3.333333 5.000000
0.000000 0.000000 5.000000
27.977646 0.006111 4.942063
29.989326 0.020149 4.975956
36.038059 0.080398 -0.013454
40.009354 0.129872 5.005247
7.980252 0.010351 -0.081341
2.005423 5.001636 4.979905
3.155546 1.453036 -0.030387
3.991336 -0.005363 -0.031793
22.003370 0.030867 -0.108395
0.000000 5.000000 5.000000
5.981126 -0.005014 -0.049160

CELLS 734 3670
4 0 1 2 3
4 0 4 2 5
4 0 3 2 6
4 4 6 0 2
4 4 6 7 0
4 8 9 10 11
4 12 13 14 15
4 16 17 14 18
4 19 20 18 21
4 20 22 21 23
4 24 25 26 23
4 25 27 26 23
4 26 28 29 30
4 28 29 31 32
4 33 34 32 31
4 31 33 35 32
4 31 33 36 35
4 33 37 36 35
4 38 39 40 31
4 41 42 43 38
4 44 42 45 38
4 44 42 38 43
4 46 38 42 41
4 46 47 40 48
4 49 50 51 52
4 53 54 51 55
4 56 54 55 57
4 56 58 59 57
4 60 59 61 62
4 63 61 64 65
4 66 67 68 69
4 67 70 71 72
4 73 74 75 76
4 74 77 75 76
4 77 78 79 80
4 79 81 75 80
4 77 78 80 82
4 77 83 76 84
4 83 85 76 84
4 85 86 74 84
4 74 86 87 84
4 88 89 86 90
4 91 89 88 90
4 86 88 90 92
4 90 86 92 74
4 86 89 74 90
4 93 94 95 74
4 70 74 72 93
4 70 73 71 72
4 74 96 73 72
4 66 97 93 72
4 96 97 72 93
4 96 98 97 93
4 85 96 74 99
4 96 98 93 99
4 98 89 100 93
4 101 102 100 103
4 104 105 101 106
4 107 58 57 60
4 58 107 57 56
4 53 108 109 55
4 56 110 109 54
4 53 111 109 108
4 112 53 109 52
4 111 112 113 53
4 112 111 113 114
4 115 116 114 117
4 40 28 115 117
4 45 117 118 28
4 119 28 25 44
4 120 44 121 122
4 123 121 124 125
4 125 123 126 124
4 127 128 21 124
4 16 129 128 21
4 16 18 14 130
4 16 17 18 19
4 131 17 132 18
4 16 19 18 21
4 133 16 19 134
4 135 134 133 136
4 135 137 136 138
4 137 134 139 140
4 141 142 143 144
4 145 146 147 7
4 142 148 147 146
4 7 146 147 149
4 10 7 9 146
4 145 150 7 151
4 152 151 150 153
4 16 128 154 124
4 124 21 121 133
4 25 28 30 44
4 28 38 45 40
4 45 47 40 42
4 155 45 156 47
4 157 156 47 155
4 155 45 40 117
4 45 42 158 159
4 44 42 43 158
4 119 45 158 159
4 120 44 158 119
4 25 127 21 121
4 25 27 160 30
4 127 25 160 30
4 25 127 121 30
4 44 25 121 30
4 28 30 44 29
4 119 28 44 45
4 119 28 118 25
4 28 24 26 161
4 26 32 29 28
4 28 31 29 38
4 46 38 41 39
4 46 38 39 40
4 28 117 40 45
4 118 28 117 161
4 162 24 118 161
4 118 119 163 164
4 136 119 164 163
4 25 133 21 163
4 128 16 21 124
4 165 166 153 154
4 166 167 168 169
4 167 168 169 170
4 171 168 172 166
4 124 173 126 154
4 123 121 133 124
4 120 125 122 121
4 122 158 44 43
4 47 46 40 42
4 52 50 174 48
4 175 50 174 54
4 176 175 177 178
4 179 60 180 181
4 64 69 63 65
4 68 72 67 66
4 70 73 182 71
4 74 79 183 75
4 184 78 185 79
4 79 184 186 187
4 186 184 188 187
4 184 189 190 191
4 184 78 79 186
4 78 189 184 191
4 189 184 190 188
4 184 78 191 192
4 184 78 192 185
4 192 78 80 185
4 193 80 194 185
4 195 81 196 194
4 81 79 196 194
4 197 187 196 198
4 187 79 185 196
4 79 184 187 185
4 197 199 187 198
4 199 197 187 200
4 199 200 187 186
4 78 201 79 186
4 189 201 87 78
4 202 201 79 74
4 201 74 92 87
4 201 202 92 74
4 201 202 79 186
4 202 203 74 79
4 202 198 203 79
4 204 202 199 203
4 202 203 205 74
4 202 204 205 203
4 182 203 74 205
4 74 203 183 79
4 79 203 183 198
4 79 81 198 183
4 81 79 198 196
4 187 79 196 198
4 202 198 79 186
4 202 204 94 205
4 94 95 205 206
4 207 208 209 210
4 208 207 211 210
4 104 103 211 65
4 104 60 212 213
4 214 215 216 217
4 218 219 220 221
4 222 174 220 221
4 46 39 222 174
4 52 46 40 48
4 40 49 52 48
4 53 49 52 113
4 40 49 155 113
4 155 45 47 40
4 157 47 223 155
4 49 223 224 48
4 52 50 51 54
4 175 54 57 178
4 218 175 54 57
4 225 219 54 57
4 218 175 57 177
4 57 217 219 218
4 219 225 226 57
4 225 227 226 57
4 59 110 57 227
4 59 60 61 228
4 61 60 213 228
4 64 61 213 228
4 63 61 213 64
4 61 104 211 65
4 180 60 104 62
4 58 229 62 180
4 58 60 180 62
4 60 61 104 62
4 60 226 230 212
4 226 60 213 212
4 60 104 212 230
4 179 60 230 104
4 104 211 231 62
4 180 229 62 232
4 180 232 62 231
4 179 60 104 180
4 233 181 105 179
4 181 105 179 230
4 105 214 106 230
4 105 214 230 177
4 215 214 218 217
4 215 217 218 219
4 218 215 219 221
4 218 175 174 54
4 39 52 220 174
4 39 46 52 174
4 115 52 112 35
4 28 115 117 161
4 162 118 116 161
4 24 162 118 163
4 20 19 234 163
4 25 133 163 119
4 120 119 158 235
4 236 119 235 159
4 235 119 158 159
4 119 235 133 136
4 138 235 236 164
4 45 47 42 159
4 46 38 40 42
4 49 50 52 48
4 237 175 176 178
4 181 233 177 176
4 180 179 231 104
4 207 103 65 211
4 207 103 68 65
4 65 66 103 68
4 103 66 97 93
4 66 103 97 63
4 213 104 63 238
4 238 97 103 63
4 104 102 103 238
4 104 106 212 230
4 214 212 106 230
4 214 212 216 106
4 214 212 217 216
4 214 212 230 217
4 226 217 230 212
4 226 60 230 57
4 181 60 57 230
4 179 105 104 230
4 179 105 101 104
4 104 239 103 101
4 239 101 240 100
4 91 241 240 100
4 241 239 240 100
4 239 241 103 100
4 103 210 93 241
4 103 207 93 210
4 210 103 231 239
4 103 239 104 231
4 103 104 63 65
4 65 66 63 103
4 65 66 68 69
4 68 72 66 93
4 96 98 242 97
4 85 96 99 243
4 85 86 99 74
4 86 89 99 74
4 88 86 244 92
4 74 86 92 87
4 201 244 87 92
4 244 86 87 92
4 90 74 92 94
4 94 95 206 245
4 95 209 206 245
4 245 207 95 209
4 208 232 231 211
4 180 104 231 62
4 181 60 107 57
4 54 175 51 178
4 50 52 174 54
4 246 36 52 247
4 246 36 37 35
4 52 31 36 35
4 31 39 52 36
4 39 46 222 41
4 39 222 174 220
4 174 218 220 221
4 218 219 54 220
4 225 219 220 54
4 56 110 54 57
4 110 56 59 57
4 60 59 226 228
4 60 226 213 228
4 57 217 230 226
4 214 217 230 218
4 218 57 230 177
4 181 105 230 177
4 179 60 181 230
4 58 107 180 60
4 229 107 58 248
4 229 107 180 58
4 60 58 59 62
4 58 107 56 248
4 108 56 109 55
4 108 56 55 248
4 107 56 55 57
4 107 181 57 178
4 57 181 177 178
4 181 176 177 178
4 233 181 177 105
4 249 239 101 240
4 91 89 241 100
4 89 91 241 90
4 210 245 93 241
4 245 241 90 93
4 93 94 90 245
4 74 202 92 94
4 205 204 94 206
4 202 198 199 203
4 202 198 186 199
4 199 197 200 250
4 199 186 187 198
4 200 186 188 187
4 184 189 186 188
4 201 189 87 244
4 189 201 78 186
4 201 78 79 87
4 189 78 184 186
4 186 79 187 198
4 74 201 79 87
4 74 79 84 87
4 79 78 84 87
4 77 78 84 79
4 74 77 84 79
4 74 85 84 76
4 83 243 76 85
4 85 96 243 76
4 73 96 74 76
4 96 93 74 99
4 89 93 99 74
4 93 94 74 90
4 93 94 245 95
4 207 95 68 93
4 95 70 68 93
4 95 70 74 205
4 74 70 182 205
4 94 95 74 205
4 241 89 90 93
4 104 179 231 239
4 181 60 180 107
4 107 57 55 178
4 57 54 55 178
4 53 49 51 52
4 40 49 113 52
4 155 47 223 48
4 45 47 159 156
4 119 156 45 159
4 120 44 119 121
4 16 173 124 154
4 166 167 169 145
4 145 7 147 251
4 9 7 252 149
4 253 254 252 255
4 256 253 255 254
4 6 9 252 255
4 253 257 149 252
4 7 258 259 260
4 260 261 251 170
4 169 260 251 170
4 169 251 167 170
4 166 167 145 171
4 16 22 18 130
4 25 24 20 23
4 24 25 118 28
4 119 156 118 45
4 119 28 45 118
4 119 45 44 158
4 44 38 28 29
4 25 28 26 30
4 25 24 26 28
4 24 20 234 163
4 162 24 234 163
4 163 119 118 25
4 235 135 133 136
4 135 134 140 133
4 145 141 153 144
4 145 260 169 151
4 0 258 4 5
4 259 258 262 263
4 264 259 262 263
4 258 7 262 0
4 260 258 259 261
4 258 261 263 259
4 261 258 263 265
4 261 260 251 259
4 167 251 169 145
4 145 260 251 169
4 166 167 171 168
4 16 171 153 140
4 137 135 136 134
4 138 135 235 136
4 235 138 136 164
4 236 119 156 164
4 157 156 159 47
4 155 47 48 40
4 40 49 48 155
4 46 52 174 48
4 247 225 220 54
4 110 225 57 227
4 60 59 57 226
4 104 61 211 62
4 232 211 62 231
4 103 104 211 231
4 239 210 103 241
4 241 93 103 100
4 68 72 93 70
4 103 207 68 93
4 207 103 211 210
4 210 208 231 211
4 103 210 231 211
4 245 207 210 93
4 245 207 209 210
4 245 207 93 95
4 70 95 74 93
4 70 73 74 182
4 182 203 183 74
4 202 74 205 94
4 93 89 90 74
4 89 241 100 93
4 93 98 103 100
4 101 104 102 103
4 104 101 102 106
4 106 238 104 212
4 266 216 212 106
4 106 238 212 266
4 106 238 102 104
4 267 266 238 102
4 97 102 267 238
4 106 238 266 102
4 97 102 238 103
4 97 102 103 98
4 97 102 98 267
4 97 98 242 267
4 96 98 99 242
4 89 98 99 93
4 239 101 100 103
4 104 179 239 101
4 179 249 239 101
4 105 179 101 249
4 233 105 249 179
4 177 181 57 230
4 175 57 177 178
4 175 237 51 178
4 55 54 51 178
4 112 111 109 53
4 112 53 52 113
4 117 115 113 114
4 116 118 117 161
4 115 116 117 161
4 28 115 161 32
4 29 32 26 34
4 26 30 29 27
4 34 26 29 27
4 29 34 31 32
4 31 115 32 35
4 31 115 28 32
4 246 112 52 35
4 246 247 52 54
4 247 110 225 54
4 59 227 57 226
4 213 104 238 212
4 104 103 63 238
4 97 98 103 93
4 70 73 72 74
4 71 182 268 73
4 182 75 268 73
4 182 75 183 268
4 183 81 268 75
4 182 75 74 183
4 79 81 183 75
4 79 81 80 194
4 78 192 80 82
4 192 193 80 82
4 269 193 192 82
4 193 192 80 185
4 80 79 194 185
4 77 74 75 79
4 85 96 76 74
4 96 243 242 99
4 98 102 103 100
4 104 105 106 230
4 214 218 230 177
4 50 175 51 54
4 49 155 223 48
4 157 156 236 159
4 236 119 159 156
4 235 119 164 136
4 236 119 164 235
4 133 235 120 123
4 120 235 133 119
4 135 123 235 133
4 124 173 123 126
4 173 172 126 154
4 166 171 154 172
4 172 171 154 173
4 171 16 154 173
4 171 166 154 153
4 16 171 154 153
4 124 173 16 133
4 124 173 133 123
4 25 133 119 121
4 19 16 133 21
4 163 19 133 21
4 134 19 133 136
4 133 119 136 163
4 133 19 163 136
4 132 20 18 19
4 20 132 234 19
4 20 19 163 21
4 22 20 21 18
4 16 22 21 18
4 128 129 127 21
4 160 129 21 127
4 160 21 25 127
4 25 20 21 23
4 25 27 23 160
4 25 27 30 26
4 23 22 21 160
4 16 129 21 22
4 128 130 165 270
4 128 130 270 129
4 128 130 16 165
4 16 165 153 154
4 17 16 14 153
4 131 17 18 14
4 17 141 153 15
4 12 10 15 153
4 15 17 14 153
4 153 16 14 130
4 16 129 22 130
4 128 130 129 16
4 16 128 165 154
4 151 166 153 165
4 260 145 7 151
4 9 6 252 7
4 7 262 252 149
4 260 259 7 251
4 7 259 147 251
4 264 259 271 149
4 259 7 147 149
4 146 148 147 149
4 271 259 147 149
4 148 271 147 149
4 146 142 143 141
4 144 141 140 139
4 141 134 140 139
4 143 141 144 139
4 142 145 141 146
4 145 142 141 144
4 148 142 143 146
4 145 7 10 146
4 145 150 151 153
4 151 272 150 7
4 151 272 273 150
4 151 272 4 273
4 4 272 2 273
4 151 272 7 4
4 4 260 7 151
4 166 145 151 153
4 166 145 169 151
4 171 166 153 145
4 133 16 140 173
4 124 16 21 133
4 25 21 160 23
4 21 129 160 22
4 121 21 124 127
4 121 120 133 119
4 123 121 125 120
4 123 121 120 133
4 25 133 121 21
4 25 20 163 21
4 118 24 28 161
4 26 28 161 32
4 40 115 28 31
4 115 52 113 112
4 246 112 109 52
4 246 52 109 54
4 56 54 109 55
4 56 107 55 248
4 58 60 59 57
4 63 61 65 104
4 68 72 70 67
4 182 75 73 74
4 77 79 75 80
4 196 79 185 194
4 79 78 185 80
4 77 78 82 84
4 83 77 82 84
4 77 74 84 76
4 96 74 93 72
4 103 66 93 68
4 65 66 69 63
4 63 61 104 213
4 61 60 104 213
4 59 227 226 228
4 274 110 227 225
4 246 36 247 37
4 246 36 35 52
4 52 115 40 31
4 28 31 38 40
4 44 42 158 45
4 120 44 122 158
4 135 133 140 173
4 171 16 173 140
4 171 144 153 140
4 141 144 140 153
4 10 141 15 153
4 10 12 15 13
4 10 8 12 13
4 8 10 12 11
4 8 9 11 255
4 9 253 149 252
4 257 262 149 252
4 262 259 149 7
4 258 7 4 260
4 259 258 7 262
4 262 0 7 252
4 0 6 7 252
4 254 6 252 255
4 0 3 6 252
4 6 3 254 252
4 272 6 11 7
4 4 6 272 7
4 4 6 2 272
4 9 6 11 255
4 9 253 252 255
4 262 264 257 149
4 257 264 275 271
4 259 264 262 149
4 257 264 271 149
4 9 146 7 149
4 10 7 11 9
4 7 12 10 11
4 145 150 153 12
4 12 145 10 153
4 145 146 10 141
4 145 142 147 146
4 171 145 153 144
4 171 142 145 144
4 142 171 145 167
4 142 145 147 167
4 167 145 147 251
4 145 260 7 251
4 145 150 12 7
4 12 145 7 10
4 12 152 153 14
4 152 153 14 130
4 152 151 153 165
4 165 152 276 270
4 152 151 165 276
4 165 152 270 130
4 152 151 276 150
4 276 150 151 273
4 272 7 11 150
4 7 12 11 150
4 153 150 152 12
4 165 16 153 130
4 165 152 130 153
4 15 12 153 14
4 13 131 14 15
4 17 131 15 14
4 17 132 18 19
4 25 24 163 20
4 25 24 118 163
4 119 156 164 118
4 118 117 45 156
4 155 45 117 156
4 113 40 117 155
4 50 49 224 48
4 49 50 224 51
4 50 237 224 51
4 237 50 175 51
4 52 54 220 174
4 52 247 220 54
4 39 247 220 52
4 39 247 52 36
4 115 52 35 31
4 40 115 52 113
4 40 115 113 117
4 115 112 113 114
4 53 52 51 54
4 54 53 109 55
4 52 53 109 54
4 110 246 109 54
4 247 110 54 246
4 247 110 274 225
4 246 274 37 247
4 247 110 246 274
4 110 225 54 57
4 57 217 226 219
4 57 217 218 230
4 219 218 54 57
4 218 54 174 220
4 46 39 52 40
4 39 31 52 40
4 38 42 45 40
4 28 38 44 45
4 121 25 44 119
4 123 135 173 133
4 134 153 140 16
4 134 16 140 133
4 137 135 134 140
4 134 153 141 140
4 134 153 16 17
4 16 17 19 134
4 134 153 17 141
4 153 145 10 141
4 6 9 11 7
4 258 7 0 4
4 1 0 2 5

CELL_TYPES 734
10
10
10
10
10
10
10
10
10
10
10
10
10
10
10
10
10
10
10
10
10
10
10
10
10
10
10
10
10
10
10
10
10
10
10
10
10
10
10
10
10
10
10
10
10
10
10
10
10
10
10
10
10
10
10
10
10
10
10
10
10
10
10
10
10
10
10
10
10
10
10
10
10
10
10
10
10
10
10
10
10
10
10
10
10
10
10
10
10
10
10
10
10
10
10
10
10
10
10
10
10
10
10
10
10
10
10
10
10
10
10
10
10
10
10
10
10
10
10
10
10
10
10
10
10
10
10
10
10
10
10
10
10
10
10
10
10
10
10
10
10
10
10
10
10
10
10
10
10
10
10
10
10
10
10
10
10
10
10
10
10
10
10
10
10
10
10
10
10
10
10
10
10
10
10
10
10
10
10
10
10
10
10
10
10
10
10
10
10
10
10
10
10
10
10
10
10
10
10
10
10
10
10
10
10
10
10
10
10
10
10
10
10
10
10
10
10
10
10
10
10
10
10
10
10
10
10
10
10
10
10
10
10
10
10
10
10
10
10
10
10
10
10
10
10
10
10
10
10
10
10
10
10
10
10
10
10
10
10
10
10
10
10
10
10
10
10
10
10
10
10
10
10
10
10
10
10
10
10
10
10
10
10
10
10
10
10
10
10
10
10
10
10
10
10
10
10
10
10
10
10
10
10
10
10
10
10
10
10
10
10
10
10
10
10
10
10
10
10
10
10
10
10
10
10
10
10
10
10
10
10
10
10
10
10
10
10
10
10
10
10
10
10
10
10
10
10
10
10
10
10
10
10
10
10
10
10
10
10
10
10
10
10
10
10
10
10
10
10
10
10
10
10
10
10
10
10
10
10
10
10
10
10
10
10
10
10
10
10
10
10
10
10
10
10
10
10
10
10
10
10
10
10
10
10
10
10
10
10
10
10
10
10
10
10
10
10
10
10
10
10
10
10
10
10
10
10
10
10
10
10
10
10
10
10
10
10
10
10
10
10
10
10
10
10
10
10
10
10
10
10
10
10
10
10
10
10
10
10
10
10
10
10
10
10
10
10
10
10
10
10
10
10
10
10
10
10
10
10
10
10
10
10
10
10
10
10
10
10
10
10
10
10
10
10
10
10
10
10
10
10
10
10
10
10
10
10
10
10
10
10
10
10
10
10
10
10
10
10
10
10
10
10
10
10
10
10
10
10
10
10
10
10
10
10
10
10
10
10
10
10
10
10
10
10
10
10
10
10
10
10
10
10
10
10
10
10
10
10
10
10
10
10
10
10
10
10
10
10
10
10
10
10
10
10
10
10
10
10
10
10
10
10
10
10
10
10
10
10
10
10
10
10
10
10
10
10
10
10
10
10
10
10
10
10
10
10
10
10
10
10
10
10
10
10
10
10
10
10
10
10
10
10
10
10
10
10
10
10
10
10
10
10
10
10
10
10
10
10
10
10
10
10
10
10
10
10
10
10
10
10
10
10
10
10
10
10
10
10
10
10
10
10
10
10
10
10
10
10
10
10
10
10
10
10
10
10
10
10
10
10
10
10
10
10
10
10
10
10
10
10
10
10
10
10
10
10
10
10
10
10
10
10
10
10
10
10
10
10
10
10
10
10
10
10
10
10
10
10
10
10
10
10
10
10
10
10
10
10
10
10
10
10
10

CELL_DATA 734
SCALARS potentialEnergy FLOAT 1
LOOKUP_TABLE default
64.938328
46.699768
112.364120
143.159607
99.740631
273.139893
29.880777
54.634514
72.780575
73.749863
18.587472
83.609398
16.615328
53.228203
71.845234
120.890961
131.956894
72.322151
36.707127
49.439125
97.251900
36.734331
39.485317
51.233902
65.941494
53.623573
95.406204
70.174644
197.721954
108.780205
47.762085
164.627136
50.106712
59.313953
56.693821
163.300079
101.805321
39.409460
109.971878
186.509460
221.956589
193.905365
120.561852
122.873146
253.257385
308.818329
341.186615
276.714264
46.659523
106.521873
319.125122
288.862335
226.980072
195.655182
97.241989
125.373734
112.709045
117.315689
58.960571
221.639053
37.359909
19.295936
28.423149
173.614334
68.111103
36.062977
41.114506
88.992752
84.816017
87.417534
80.168579
26.490383
120.942009
22.541834
31.542585
45.785450
91.091537
109.140465
96.792778
120.458298
64.805641
38.351961
69.249722
50.528969
114.934967
78.430969
130.738525
127.571739
73.585770
242.967041
35.927629
30.903841
48.038124
83.304947
48.961853
58.203156
34.681171
95.358932
90.335159
35.556698
34.763279
123.487579
36.942593
43.178719
40.331644
49.448372
145.718430
48.606205
70.127232
86.238480
43.904804
36.091999
194.095551
29.392050
71.064369
119.577484
58.037296
45.919258
66.512794
70.352180
35.262520
30.518766
106.973000
91.236832
102.111427
97.648636
74.848457
48.152607
81.518829
66.918854
62.816700
85.405922
248.342926
71.164597
139.181335
171.807632
219.895554
51.285503
141.780411
77.828529
43.328259
31.578749
57.897682
68.899986
128.251503
36.763950
42.972588
52.799175
56.558418
50.989132
214.834854
68.431313
85.379509
93.738785
57.170376
56.297211
54.760296
57.306900
40.065681
19.573485
88.350197
91.764488
76.021965
33.674503
58.675606
41.478228
15.103936
59.079762
27.932878
38.039995
55.243908
25.532706
50.777851
119.195747
56.778221
33.789886
45.007984
45.462547
330.239258
58.683899
82.461250
174.212570
158.016632
52.581966
36.914455
67.819122
70.866467
80.419167
168.278793
88.984253
39.975693
118.572365
50.676476
85.553658
119.293770
69.174000
87.827675
67.312355
146.529724
115.760681
121.196793
108.922371
178.209961
159.255844
79.239761
81.084564
94.003525
199.821167
129.024284
148.642303
157.051392
107.449112
165.004578
149.087173
182.678085
214.763000
55.416260
34.927000
145.147278
180.512405
175.813553
93.009186
92.025208
118.473518
43.562511
60.922943
80.870651
87.429985
119.053558
149.488052
55.443268
117.242645
19.243114
38.874483
241.935394
43.742500
49.855083
36.423103
28.011864
93.471252
48.406158
79.400108
93.400291
93.658134
92.514603
109.862480
59.358269
86.153984
53.488205
177.384766
256.748184
130.269974
221.311722
53.055794
189.296829
147.682983
156.982605
104.271713
221.773178
193.172104
81.112282
80.236961
154.112000
264.334442
106.601875
66.645508
85.495338
104.938316
170.859711
364.098785
389.225250
69.313602
55.376076
92.213860
181.048874
68.123966
392.809937
82.063225
53.422768
189.092804
207.280991
216.700714
221.753616
47.825787
127.930695
195.096436
192.223145
35.478346
84.733330
107.200630
164.465332
118.074783
64.943333
95.276886
58.569679
46.901272
142.986572
74.472610
37.524258
84.284515
28.638809
112.229988
80.088196
27.887272
127.417511
222.151184
146.665253
69.276905
137.251801
154.542358
197.635223
217.658218
108.348427
120.824417
56.920364
191.168884
62.917664
36.874399
77.030746
92.036324
30.420847
31.050116
75.690727
233.965164
85.194351
48.336281
143.625656
272.653564
222.281174
282.935516
96.313469
22.689180
19.617132
36.018257
56.765724
79.282135
32.225534
41.169916
21.200654
25.892160
81.264778
266.409058
111.448776
217.330566
107.531158
42.954834
45.860554
133.581741
202.926712
77.826843
80.128113
106.561241
303.568604
272.275482
261.391739
217.250717
179.883392
252.638794
142.094269
79.453354
200.254318
260.030457
123.896027
207.928452
53.665573
70.186371
129.785637
87.592430
66.381241
40.058643
58.625679
66.503979
63.356056
236.576843
168.288925
140.352234
176.220093
149.945221
181.034622
75.178452
152.262024
132.131927
61.909081
81.973251
188.169510
103.211090
49.960888
32.940239
167.640976
60.399788
46.152081
72.139740
30.513567
32.285231
42.607044
21.301582
75.294930
18.542188
84.272369
133.987907
90.200363
49.756260
225.287262
158.254089
142.539078
208.749863
294.959595
58.851200
104.287529
147.858444
88.441238
96.878067
82.743111
57.512043
18.753210
45.613644
70.720222
37.427820
60.281788
128.241425
95.459717
110.187668
97.393036
70.016224
97.290260
94.261353
49.638599
93.285988
335.031525
490.299713
217.546539
70.052822
64.431442
246.492188
304.475128
76.500862
313.403442
214.964706
125.561157
48.320431
127.429115
447.306549
86.445564
182.988998
58.110535
56.239120
169.200958
85.945869
58.172039
62.670486
131.722618
143.881821
20.943253
219.533035
192.241669
114.468140
168.207001
104.552063
101.313423
102.619064
96.255768
151.547424
103.715019
215.703629
65.204952
82.446686
17.330574
82.766701
35.259859
142.051636
47.497868
55.112377
57.192642
47.183582
59.582161
24.207423
27.899855
27.223888
181.079376
25.841553
110.319374
47.828018
49.942913
232.669250
135.904327
43.711166
213.523804
81.513985
47.109592
70.846867
57.047012
70.739532
101.785576
70.786217
52.526379
68.925350
51.939049
70.486820
55.798527
58.793564
90.214989
186.917175
83.067680
168.301453
107.655716
111.895477
110.743492
49.642887
31.508482
42.219738
44.199989
56.628815
29.875952
85.327957
28.695339
46.803192
151.407608
67.114708
53.880520
84.517578
144.121384
58.656380
108.775352
50.864029
41.197157
47.225231
71.281124
133.017029
111.704216
108.447273
50.666794
54.506607
77.462685
38.131029
25.223170
45.371555
110.130432
47.669724
26.561680
37.672991
87.358734
69.931374
37.424107
45.333786
47.187157
36.972082
79.129349
41.858816
34.646410
58.627853
53.542870
40.273260
35.198492
41.400337
88.924744
22.123569
99.635490
136.449356
129.205376
168.538803
88.480217
82.613991
67.765438
254.245865
95.707565
37.353664
63.569725
86.686470
39.889334
34.885046
53.991852
373.157532
153.297104
38.825588
189.387589
172.482880
88.808525
48.984695
57.268799
87.161247
53.334862
94.992340
133.522713
133.413757
121.632599
158.565521
49.765884
17.430164
55.604431
26.874704
26.144245
23.597317
34.001375
59.937557
185.010330
61.891262
54.886379
90.072281
168.012589
128.434822
80.057037
74.152657
36.085054
31.203676
109.582489
202.372833
50.734703
48.852448
78.962967
49.994709
39.959562
44.941502
62.490582
259.839233
178.089325
48.801846
185.741974
214.635284
246.688065
75.656975
57.792332
71.299046
229.105972
61.144417
108.449524
45.543228
136.140305
103.733826
97.221405
68.436935
75.418709
33.563242
49.992836
49.442570
234.850082
92.230118
96.261185
192.186096
77.487083
162.678879
106.270164
91.608780
150.168381
179.339386
173.227325
116.966286
79.594337
66.093384
216.924042
168.960434
97.969223
271.750580
127.962914
61.930599
112.310699
155.555832
65.992100
134.412613
117.307732
104.708221
124.061958
132.670036
60.832970
90.740753
63.922756
113.893211
108.057365
142.231689
109.316185
48.768105
49.994446
161.342316
128.285713
139.860855
38.935450
141.094254
79.422523
69.318588
95.109489
80.549118
34.082712
62.126640
43.568264
31.384430
34.412729
30.578421
38.970558
29.495047
89.136597
64.442951
43.296696
73.375206
40.427721
43.377792
73.406597
23.374921
164.652069
103.297203
182.848587
83.407005
170.449341
139.335648
90.869629
175.046738
171.307327
71.938171
92.364281
54.794353
56.943714
44.696362
57.423889
41.942135
54.716335
57.208828
140.395340
85.297997
82.769279
78.431435
92.917053
70.361217
76.778015
92.605888
168.245209
85.745705
165.671112
75.686554
99.947510
105.341164
77.324120
82.897636
149.411423
246.795807
232.589066
53.160809

