# vtk DataFile Version 3.1
Tetrahedral Mesh Visualization
ASCII
DATASET UNSTRUCTURED_GRID

POINTS 277 FLOAT
0.000000 1.378113 1.754166
0.000000 0.000000 0.000000
2.000506 -0.009758 0.025706
0.000000 1.666667 0.000000
2.424018 -0.008861 1.761700
0.000000 0.000000 1.666667
1.697181 2.456726 0.016009
3.000186 2.444458 2.350684
3.999353 4.964322 0.010368
3.075873 4.985569 1.660395
5.213465 4.966631 1.613285
3.492799 3.150783 0.026300
5.419103 3.263743 0.019234
6.011056 4.954194 0.008500
7.388256 3.290514 0.030570
6.976980 4.961180 1.335024
9.255829 2.168630 2.099328
8.703780 4.984240 1.633485
9.379210 3.296899 0.060771
10.668357 4.994913 1.712870
11.375080 3.304945 0.090240
11.124109 1.856029 1.659272
10.707014 1.637570 0.096379
12.706993 1.639543 0.124499
13.379572 3.299161 0.116134
12.989704 1.859909 1.617744
14.715861 1.632403 0.154816
14.043325 -0.027448 0.151002
15.484968 2.121196 1.851892
15.352712 -0.020519 1.836913
13.348446 -0.014578 1.803307
17.315624 -0.021684 1.842646
16.725487 1.626666 0.202089
18.053507 -0.040326 0.248673
16.054964 -0.040461 0.203228
18.723797 1.633806 0.246443
19.030476 -0.023652 1.589239
20.048174 -0.027200 0.282004
16.719311 -0.008137 3.517498
18.991325 -0.004313 3.384240
17.691454 2.677683 3.160171
17.944643 0.013489 5.247670
16.627399 1.676653 5.195034
15.944040 0.011901 5.191203
14.664374 -0.003867 3.487170
15.753996 2.881009 3.513681
18.673916 1.712550 5.250065
17.261147 3.357741 5.188137
19.231533 3.406551 5.246137
19.308952 4.995402 3.563866
20.946051 3.693964 5.268001
21.310305 5.001421 3.594584
19.626602 2.480049 2.620403
20.667000 4.986039 1.919680
21.910641 2.506105 2.768737
22.671572 4.987916 1.948440
23.335371 3.359952 0.312757
23.972286 2.438463 2.629555
25.048698 3.645696 0.347094
25.049278 1.857549 0.361440
25.996094 2.485173 2.116463
27.311501 1.653090 0.425840
26.753937 3.347579 0.393548
29.288980 -0.029468 2.116036
28.056269 -0.044389 0.460620
29.354115 1.619416 0.484282
31.011580 -0.036400 1.881923
32.052223 -0.053182 0.590243
31.345772 1.610106 0.543871
30.054407 -0.053909 0.529453
33.304176 1.616448 0.571373
34.041912 -0.033480 0.620244
32.705299 -0.019581 2.213450
34.624569 0.010474 2.300937
34.987957 2.442566 3.090870
36.539341 0.047474 2.429395
35.156685 0.059902 3.993816
36.848293 0.084662 4.154580
38.268997 2.660258 5.569827
37.696709 2.234883 2.762840
38.332119 0.086257 3.161256
38.050846 0.027682 0.632910
38.007355 0.135188 5.618207
36.009193 0.104004 5.605989
36.542191 1.859649 5.570788
34.912354 1.418767 5.569711
34.807396 3.207624 5.533333
36.714622 3.594381 5.534128
33.941296 5.049866 5.504156
32.643265 3.340310 5.529505
33.233273 5.019065 3.845443
31.937616 5.034200 5.486151
35.115410 5.057220 3.892186
32.198757 2.595672 2.965294
34.570339 5.019617 2.194774
32.653557 3.288026 0.526698
33.214096 0.028884 3.911994
30.976963 0.000489 3.668801
31.267466 1.685013 5.528836
33.213139 1.655954 5.564383
30.610432 3.351469 5.497861
28.602745 3.348840 5.455556
29.275801 1.686606 5.484811
30.012245 2.488489 2.968927
27.955288 2.476205 2.921345
26.602665 3.353566 5.394882
27.269560 1.685594 5.428258
24.670973 4.983690 1.985525
22.043819 4.968568 0.270119
21.377682 3.316690 0.282038
22.780359 1.670698 0.315801
20.044666 4.970380 0.239373
19.385311 3.300859 0.246291
18.674196 4.980946 1.883258
18.049809 4.967506 0.202331
17.387600 3.297718 0.199729
16.048708 4.965874 0.151264
16.675417 4.980842 1.828498
14.674187 4.975981 1.788425
13.674680 2.962673 3.394894
12.951407 1.347835 5.128788
12.654514 0.005814 3.465934
13.947943 0.016712 5.148089
11.242635 1.640414 5.105242
10.648059 0.010060 3.451701
11.963362 0.017564 5.125372
9.967082 0.022611 5.111352
11.340212 -0.007150 1.789126
9.323523 -0.009423 1.768910
10.036382 -0.026636 0.107384
8.713248 1.629527 0.068279
8.021824 4.959129 0.014314
10.029112 4.968431 0.048637
11.206124 2.655956 3.377084
9.240763 5.013443 3.330739
10.704762 3.341043 5.074258
11.296277 5.016445 3.389997
9.967841 5.032072 5.039662
11.962155 5.034527 5.073293
7.973074 5.019125 5.017545
8.714489 3.411051 5.043561
6.958712 4.993950 3.123265
5.346127 3.372291 5.029534
5.985493 5.013189 5.007867
7.010244 3.691553 5.028413
5.141355 2.357728 3.171340
4.622086 4.985898 3.295566
3.484643 3.185041 5.021226
3.996112 4.996010 5.007216
2.369530 4.992103 3.292295
4.850490 1.568258 0.042751
4.908873 -0.025437 1.923103
6.745792 1.619280 0.057710
7.017199 2.543305 2.233023
8.644260 0.002502 3.430656
17.310947 5.004522 3.507033
15.314643 5.000262 3.461780
15.948054 5.018988 5.146867
14.662406 1.625626 5.151086
15.219461 3.318940 5.145185
12.035181 -0.021707 0.129217
15.384662 3.296526 0.152066
14.047438 4.961265 0.112019
12.670353 4.988188 1.748260
13.308043 5.006893 3.425684
7.253153 -0.023891 1.768038
6.659652 -0.003711 3.444588
4.898360 1.646528 5.042619
5.984283 0.000978 5.060370
4.907522 -0.011706 3.711186
3.993743 -0.010824 5.043076
7.026431 1.899296 5.052939
7.971540 0.016037 5.084482
9.248134 1.713840 5.080490
20.944016 1.902386 5.283008
22.654221 3.406687 5.297700
23.946505 5.018239 5.303515
24.610197 3.358353 5.338171
23.311045 4.998707 3.625817
27.304916 4.993272 3.728649
26.672478 4.979043 2.040678
25.308918 4.999153 3.666160
35.185970 1.593613 0.578150
36.870544 1.468963 0.587236
39.977390 3.376137 4.191601
40.009312 1.736219 3.203603
38.270233 5.088005 3.035951
39.992348 3.340072 2.467460
39.955589 5.126560 3.855668
37.938511 5.141734 5.493409
39.936291 5.174269 5.513179
39.962257 3.501180 5.561152
39.988609 1.830019 5.601543
40.025909 0.127615 3.974862
40.039669 0.085206 2.311472
40.054455 0.054099 0.642365
40.032349 1.714329 0.608023
40.003014 3.382752 0.569814
38.326515 2.496855 0.577237
37.984661 5.029950 0.505763
39.979725 5.081094 2.189129
36.790714 5.082248 4.041306
36.480480 5.053416 2.318981
36.522060 3.189620 0.550788
35.987473 5.008641 0.496636
34.607639 3.289953 0.531386
33.992615 4.976918 0.496380
30.684689 3.282670 0.494613
30.033096 4.951525 0.445352
32.013798 4.964018 0.479359
30.647865 4.980264 2.132226
28.701147 3.293072 0.448812
26.709879 0.000969 3.805905
27.282846 -0.024576 2.127148
25.260866 1.685156 5.371573
23.950361 0.013576 5.343383
25.950352 0.009480 5.397383
24.978451 0.005882 4.049381
23.206903 1.714251 5.321683
23.260098 0.003376 3.714272
21.253460 0.000223 3.608607
21.954737 0.007789 5.305138
19.952394 0.012057 5.281070
17.945688 5.017837 5.193903
19.950468 5.011084 5.241568
22.751278 -0.010865 2.011811
25.018167 -0.011820 2.259059
24.052855 -0.029937 0.355296
26.054890 -0.038967 0.401713
26.052849 4.959159 0.354756
25.676584 2.235594 3.867313
28.662073 4.974501 2.091624
28.046535 4.953757 0.403819
25.938316 5.019628 5.352150
12.038255 4.968611 0.077419
12.959835 3.142190 5.113616
13.960937 5.030572 5.101120
21.950993 5.017361 5.268271
28.721722 -0.001049 3.798105
29.291889 4.991039 3.778861
29.932575 5.018486 5.460779
31.274672 4.998177 3.817398
31.973810 0.043876 5.569801
33.999577 0.071352 5.596395
35.941742 5.102894 5.496087
32.619617 4.997842 2.163948
20.731003 1.646619 0.282720
20.743418 -0.013531 1.907417
24.050558 4.962298 0.303721
27.934599 5.015703 5.418968
39.981407 5.049941 0.521468
3.179636 1.457478 5.028652
0.000000 3.103853 1.750106
0.000000 5.000000 1.666667
0.000000 3.333333 0.000000
2.000258 4.987685 0.009305
0.000000 5.000000 0.000000
0.000000 5.000000 3.333333
0.000000 0.000000 3.333333
1.695358 2.463387 5.015204
3.036813 -0.010248 3.422586
1.995783 -0.011251 5.019667
0.000000 2.403264 3.370902
0.000000 1.666667 5.000000
0.000000 3.333333 5.000000
0.000000 0.000000 5.000000
27.950703 0.017771 5.461094
29.956200 0.023766 5.527839
36.044533 0.003085 0.613193
40.012486 0.161153 5.635389
8.029131 -0.036881 0.086848
1.997826 4.991236 5.013169
3.168044 1.430339 0.031717
4.007886 -0.028741 0.041613
22.045698 -0.025555 0.311355
0.000000 5.000000 5.000000
6.025249 -0.029269 0.060296

CELLS 734 3670
4 0 1 2 3
4 0 4 2 5
4 0 3 2 6
4 4 6 0 2
4 4 6 7 0
4 8 9 10 11
4 12 13 14 15
4 16 17 14 18
4 19 20 18 21
4 20 22 21 23
4 24 25 26 23
4 25 27 26 23
4 26 28 29 30
4 28 29 31 32
4 33 34 32 31
4 31 33 35 32
4 31 33 36 35
4 33 37 36 35
4 38 39 40 31
4 41 42 43 38
4 44 42 45 38
4 44 42 38 43
4 46 38 42 41
4 46 47 40 48
4 49 50 51 52
4 53 54 51 55
4 56 54 55 57
4 56 58 59 57
4 60 59 61 62
4 63 61 64 65
4 66 67 68 69
4 67 70 71 72
4 73 74 75 76
4 74 77 75 76
4 77 78 79 80
4 79 81 75 80
4 77 78 80 82
4 77 83 76 84
4 83 85 76 84
4 85 86 74 84
4 74 86 87 84
4 88 89 86 90
4 91 89 88 90
4 86 88 90 92
4 90 86 92 74
4 86 89 74 90
4 93 94 95 74
4 70 74 72 93
4 70 73 71 72
4 74 96 73 72
4 66 97 93 72
4 96 97 72 93
4 96 98 97 93
4 85 96 74 99
4 96 98 93 99
4 98 89 100 93
4 101 102 100 103
4 104 105 101 106
4 107 58 57 60
4 58 107 57 56
4 53 108 109 55
4 56 110 109 54
4 53 111 109 108
4 112 53 109 52
4 111 112 113 53
4 112 111 113 114
4 115 116 114 117
4 40 28 115 117
4 45 117 118 28
4 119 28 25 44
4 120 44 121 122
4 123 121 124 125
4 125 123 126 124
4 127 128 21 124
4 16 129 128 21
4 16 18 14 130
4 16 17 18 19
4 131 17 132 18
4 16 19 18 21
4 133 16 19 134
4 135 134 133 136
4 135 137 136 138
4 137 134 139 140
4 141 142 143 144
4 145 146 147 7
4 142 148 147 146
4 7 146 147 149
4 10 7 9 146
4 145 150 7 151
4 152 151 150 153
4 16 128 154 124
4 124 21 121 133
4 25 28 30 44
4 28 38 45 40
4 45 47 40 42
4 155 45 156 47
4 157 156 47 155
4 155 45 40 117
4 45 42 158 159
4 44 42 43 158
4 119 45 158 159
4 120 44 158 119
4 25 127 21 121
4 25 27 160 30
4 127 25 160 30
4 25 127 121 30
4 44 25 121 30
4 28 30 44 29
4 119 28 44 45
4 119 28 118 25
4 28 24 26 161
4 26 32 29 28
4 28 31 29 38
4 46 38 41 39
4 46 38 39 40
4 28 117 40 45
4 118 28 117 161
4 162 24 118 161
4 118 119 163 164
4 136 119 164 163
4 25 133 21 163
4 128 16 21 124
4 165 166 153 154
4 166 167 168 169
4 167 168 169 170
4 171 168 172 166
4 124 173 126 154
4 123 121 133 124
4 120 125 122 121
4 122 158 44 43
4 47 46 40 42
4 52 50 174 48
4 175 50 174 54
4 176 175 177 178
4 179 60 180 181
4 64 69 63 65
4 68 72 67 66
4 70 73 182 71
4 74 79 183 75
4 184 78 185 79
4 79 184 186 187
4 186 184 188 187
4 184 189 190 191
4 184 78 79 186
4 78 189 184 191
4 189 184 190 188
4 184 78 191 192
4 184 78 192 185
4 192 78 80 185
4 193 80 194 185
4 195 81 196 194
4 81 79 196 194
4 197 187 196 198
4 187 79 185 196
4 79 184 187 185
4 197 199 187 198
4 199 197 187 200
4 199 200 187 186
4 78 201 79 186
4 189 201 87 78
4 202 201 79 74
4 201 74 92 87
4 201 202 92 74
4 201 202 79 186
4 202 203 74 79
4 202 198 203 79
4 204 202 199 203
4 202 203 205 74
4 202 204 205 203
4 182 203 74 205
4 74 203 183 79
4 79 203 183 198
4 79 81 198 183
4 81 79 198 196
4 187 79 196 198
4 202 198 79 186
4 202 204 94 205
4 94 95 205 206
4 207 208 209 210
4 208 207 211 210
4 104 103 211 65
4 104 60 212 213
4 214 215 216 217
4 218 219 220 221
4 222 174 220 221
4 46 39 222 174
4 52 46 40 48
4 40 49 52 48
4 53 49 52 113
4 40 49 155 113
4 155 45 47 40
4 157 47 223 155
4 49 223 224 48
4 52 50 51 54
4 175 54 57 178
4 218 175 54 57
4 225 219 54 57
4 218 175 57 177
4 57 217 219 218
4 219 225 226 57
4 225 227 226 57
4 59 110 57 227
4 59 60 61 228
4 61 60 213 228
4 64 61 213 228
4 63 61 213 64
4 61 104 211 65
4 180 60 104 62
4 58 229 62 180
4 58 60 180 62
4 60 61 104 62
4 60 226 230 212
4 226 60 213 212
4 60 104 212 230
4 179 60 230 104
4 104 211 231 62
4 180 229 62 232
4 180 232 62 231
4 179 60 104 180
4 233 181 105 179
4 181 105 179 230
4 105 214 106 230
4 105 214 230 177
4 215 214 218 217
4 215 217 218 219
4 218 215 219 221
4 218 175 174 54
4 39 52 220 174
4 39 46 52 174
4 115 52 112 35
4 28 115 117 161
4 162 118 116 161
4 24 162 118 163
4 20 19 234 163
4 25 133 163 119
4 120 119 158 235
4 236 119 235 159
4 235 119 158 159
4 119 235 133 136
4 138 235 236 164
4 45 47 42 159
4 46 38 40 42
4 49 50 52 48
4 237 175 176 178
4 181 233 177 176
4 180 179 231 104
4 207 103 65 211
4 207 103 68 65
4 65 66 103 68
4 103 66 97 93
4 66 103 97 63
4 213 104 63 238
4 238 97 103 63
4 104 102 103 238
4 104 106 212 230
4 214 212 106 230
4 214 212 216 106
4 214 212 217 216
4 214 212 230 217
4 226 217 230 212
4 226 60 230 57
4 181 60 57 230
4 179 105 104 230
4 179 105 101 104
4 104 239 103 101
4 239 101 240 100
4 91 241 240 100
4 241 239 240 100
4 239 241 103 100
4 103 210 93 241
4 103 207 93 210
4 210 103 231 239
4 103 239 104 231
4 103 104 63 65
4 65 66 63 103
4 65 66 68 69
4 68 72 66 93
4 96 98 242 97
4 85 96 99 243
4 85 86 99 74
4 86 89 99 74
4 88 86 244 92
4 74 86 92 87
4 201 244 87 92
4 244 86 87 92
4 90 74 92 94
4 94 95 206 245
4 95 209 206 245
4 245 207 95 209
4 208 232 231 211
4 180 104 231 62
4 181 60 107 57
4 54 175 51 178
4 50 52 174 54
4 246 36 52 247
4 246 36 37 35
4 52 31 36 35
4 31 39 52 36
4 39 46 222 41
4 39 222 174 220
4 174 218 220 221
4 218 219 54 220
4 225 219 220 54
4 56 110 54 57
4 110 56 59 57
4 60 59 226 228
4 60 226 213 228
4 57 217 230 226
4 214 217 230 218
4 218 57 230 177
4 181 105 230 177
4 179 60 181 230
4 58 107 180 60
4 229 107 58 248
4 229 107 180 58
4 60 58 59 62
4 58 107 56 248
4 108 56 109 55
4 108 56 55 248
4 107 56 55 57
4 107 181 57 178
4 57 181 177 178
4 181 176 177 178
4 233 181 177 105
4 249 239 101 240
4 91 89 241 100
4 89 91 241 90
4 210 245 93 241
4 245 241 90 93
4 93 94 90 245
4 74 202 92 94
4 205 204 94 206
4 202 198 199 203
4 202 198 186 199
4 199 197 200 250
4 199 186 187 198
4 200 186 188 187
4 184 189 186 188
4 201 189 87 244
4 189 201 78 186
4 201 78 79 87
4 189 78 184 186
4 186 79 187 198
4 74 201 79 87
4 74 79 84 87
4 79 78 84 87
4 77 78 84 79
4 74 77 84 79
4 74 85 84 76
4 83 243 76 85
4 85 96 243 76
4 73 96 74 76
4 96 93 74 99
4 89 93 99 74
4 93 94 74 90
4 93 94 245 95
4 207 95 68 93
4 95 70 68 93
4 95 70 74 205
4 74 70 182 205
4 94 95 74 205
4 241 89 90 93
4 104 179 231 239
4 181 60 180 107
4 107 57 55 178
4 57 54 55 178
4 53 49 51 52
4 40 49 113 52
4 155 47 223 48
4 45 47 159 156
4 119 156 45 159
4 120 44 119 121
4 16 173 124 154
4 166 167 169 145
4 145 7 147 251
4 9 7 252 149
4 253 254 252 255
4 256 253 255 254
4 6 9 252 255
4 253 257 149 252
4 7 258 259 260
4 260 261 251 170
4 169 260 251 170
4 169 251 167 170
4 166 167 145 171
4 16 22 18 130
4 25 24 20 23
4 24 25 118 28
4 119 156 118 45
4 119 28 45 118
4 119 45 44 158
4 44 38 28 29
4 25 28 26 30
4 25 24 26 28
4 24 20 234 163
4 162 24 234 163
4 163 119 118 25
4 235 135 133 136
4 135 134 140 133
4 145 141 153 144
4 145 260 169 151
4 0 258 4 5
4 259 258 262 263
4 264 259 262 263
4 258 7 262 0
4 260 258 259 261
4 258 261 263 259
4 261 258 263 265
4 261 260 251 259
4 167 251 169 145
4 145 260 251 169
4 166 167 171 168
4 16 171 153 140
4 137 135 136 134
4 138 135 235 136
4 235 138 136 164
4 236 119 156 164
4 157 156 159 47
4 155 47 48 40
4 40 49 48 155
4 46 52 174 48
4 247 225 220 54
4 110 225 57 227
4 60 59 57 226
4 104 61 211 62
4 232 211 62 231
4 103 104 211 231
4 239 210 103 241
4 241 93 103 100
4 68 72 93 70
4 103 207 68 93
4 207 103 211 210
4 210 208 231 211
4 103 210 231 211
4 245 207 210 93
4 245 207 209 210
4 245 207 93 95
4 70 95 74 93
4 70 73 74 182
4 182 203 183 74
4 202 74 205 94
4 93 89 90 74
4 89 241 100 93
4 93 98 103 100
4 101 104 102 103
4 104 101 102 106
4 106 238 104 212
4 266 216 212 106
4 106 238 212 266
4 106 238 102 104
4 267 266 238 102
4 97 102 267 238
4 106 238 266 102
4 97 102 238 103
4 97 102 103 98
4 97 102 98 267
4 97 98 242 267
4 96 98 99 242
4 89 98 99 93
4 239 101 100 103
4 104 179 239 101
4 179 249 239 101
4 105 179 101 249
4 233 105 249 179
4 177 181 57 230
4 175 57 177 178
4 175 237 51 178
4 55 54 51 178
4 112 111 109 53
4 112 53 52 113
4 117 115 113 114
4 116 118 117 161
4 115 116 117 161
4 28 115 161 32
4 29 32 26 34
4 26 30 29 27
4 34 26 29 27
4 29 34 31 32
4 31 115 32 35
4 31 115 28 32
4 246 112 52 35
4 246 247 52 54
4 247 110 225 54
4 59 227 57 226
4 213 104 238 212
4 104 103 63 238
4 97 98 103 93
4 70 73 72 74
4 71 182 268 73
4 182 75 268 73
4 182 75 183 268
4 183 81 268 75
4 182 75 74 183
4 79 81 183 75
4 79 81 80 194
4 78 192 80 82
4 192 193 80 82
4 269 193 192 82
4 193 192 80 185
4 80 79 194 185
4 77 74 75 79
4 85 96 76 74
4 96 243 242 99
4 98 102 103 100
4 104 105 106 230
4 214 218 230 177
4 50 175 51 54
4 49 155 223 48
4 157 156 236 159
4 236 119 159 156
4 235 119 164 136
4 236 119 164 235
4 133 235 120 123
4 120 235 133 119
4 135 123 235 133
4 124 173 123 126
4 173 172 126 154
4 166 171 154 172
4 172 171 154 173
4 171 16 154 173
4 171 166 154 153
4 16 171 154 153
4 124 173 16 133
4 124 173 133 123
4 25 133 119 121
4 19 16 133 21
4 163 19 133 21
4 134 19 133 136
4 133 119 136 163
4 133 19 163 136
4 132 20 18 19
4 20 132 234 19
4 20 19 163 21
4 22 20 21 18
4 16 22 21 18
4 128 129 127 21
4 160 129 21 127
4 160 21 25 127
4 25 20 21 23
4 25 27 23 160
4 25 27 30 26
4 23 22 21 160
4 16 129 21 22
4 128 130 165 270
4 128 130 270 129
4 128 130 16 165
4 16 165 153 154
4 17 16 14 153
4 131 17 18 14
4 17 141 153 15
4 12 10 15 153
4 15 17 14 153
4 153 16 14 130
4 16 129 22 130
4 128 130 129 16
4 16 128 165 154
4 151 166 153 165
4 260 145 7 151
4 9 6 252 7
4 7 262 252 149
4 260 259 7 251
4 7 259 147 251
4 264 259 271 149
4 259 7 147 149
4 146 148 147 149
4 271 259 147 149
4 148 271 147 149
4 146 142 143 141
4 144 141 140 139
4 141 134 140 139
4 143 141 144 139
4 142 145 141 146
4 145 142 141 144
4 148 142 143 146
4 145 7 10 146
4 145 150 151 153
4 151 272 150 7
4 151 272 273 150
4 151 272 4 273
4 4 272 2 273
4 151 272 7 4
4 4 260 7 151
4 166 145 151 153
4 166 145 169 151
4 171 166 153 145
4 133 16 140 173
4 124 16 21 133
4 25 21 160 23
4 21 129 160 22
4 121 21 124 127
4 121 120 133 119
4 123 121 125 120
4 123 121 120 133
4 25 133 121 21
4 25 20 163 21
4 118 24 28 161
4 26 28 161 32
4 40 115 28 31
4 115 52 113 112
4 246 112 109 52
4 246 52 109 54
4 56 54 109 55
4 56 107 55 248
4 58 60 59 57
4 63 61 65 104
4 68 72 70 67
4 182 75 73 74
4 77 79 75 80
4 196 79 185 194
4 79 78 185 80
4 77 78 82 84
4 83 77 82 84
4 77 74 84 76
4 96 74 93 72
4 103 66 93 68
4 65 66 69 63
4 63 61 104 213
4 61 60 104 213
4 59 227 226 228
4 274 110 227 225
4 246 36 247 37
4 246 36 35 52
4 52 115 40 31
4 28 31 38 40
4 44 42 158 45
4 120 44 122 158
4 135 133 140 173
4 171 16 173 140
4 171 144 153 140
4 141 144 140 153
4 10 141 15 153
4 10 12 15 13
4 10 8 12 13
4 8 10 12 11
4 8 9 11 255
4 9 253 149 252
4 257 262 149 252
4 262 259 149 7
4 258 7 4 260
4 259 258 7 262
4 262 0 7 252
4 0 6 7 252
4 254 6 252 255
4 0 3 6 252
4 6 3 254 252
4 272 6 11 7
4 4 6 272 7
4 4 6 2 272
4 9 6 11 255
4 9 253 252 255
4 262 264 257 149
4 257 264 275 271
4 259 264 262 149
4 257 264 271 149
4 9 146 7 149
4 10 7 11 9
4 7 12 10 11
4 145 150 153 12
4 12 145 10 153
4 145 146 10 141
4 145 142 147 146
4 171 145 153 144
4 171 142 145 144
4 142 171 145 167
4 142 145 147 167
4 167 145 147 251
4 145 260 7 251
4 145 150 12 7
4 12 145 7 10
4 12 152 153 14
4 152 153 14 130
4 152 151 153 165
4 165 152 276 270
4 152 151 165 276
4 165 152 270 130
4 152 151 276 150
4 276 150 151 273
4 272 7 11 150
4 7 12 11 150
4 153 150 152 12
4 165 16 153 130
4 165 152 130 153
4 15 12 153 14
4 13 131 14 15
4 17 131 15 14
4 17 132 18 19
4 25 24 163 20
4 25 24 118 163
4 119 156 164 118
4 118 117 45 156
4 155 45 117 156
4 113 40 117 155
4 50 49 224 48
4 49 50 224 51
4 50 237 224 51
4 237 50 175 51
4 52 54 220 174
4 52 247 220 54
4 39 247 220 52
4 39 247 52 36
4 115 52 35 31
4 40 115 52 113
4 40 115 113 117
4 115 112 113 114
4 53 52 51 54
4 54 53 109 55
4 52 53 109 54
4 110 246 109 54
4 247 110 54 246
4 247 110 274 225
4 246 274 37 247
4 247 110 246 274
4 110 225 54 57
4 57 217 226 219
4 57 217 218 230
4 219 218 54 57
4 218 54 174 220
4 46 39 52 40
4 39 31 52 40
4 38 42 45 40
4 28 38 44 45
4 121 25 44 119
4 123 135 173 133
4 134 153 140 16
4 134 16 140 133
4 137 135 134 140
4 134 153 141 140
4 134 153 16 17
4 16 17 19 134
4 134 153 17 141
4 153 145 10 141
4 6 9 11 7
4 258 7 0 4
4 1 0 2 5

CELL_TYPES 734
10
10
10
10
10
10
10
10
10
10
10
10
10
10
10
10
10
10
10
10
10
10
10
10
10
10
10
10
10
10
10
10
10
10
10
10
10
10
10
10
10
10
10
10
10
10
10
10
10
10
10
10
10
10
10
10
10
10
10
10
10
10
10
10
10
10
10
10
10
10
10
10
10
10
10
10
10
10
10
10
10
10
10
10
10
10
10
10
10
10
10
10
10
10
10
10
10
10
10
10
10
10
10
10
10
10
10
10
10
10
10
10
10
10
10
10
10
10
10
10
10
10
10
10
10
10
10
10
10
10
10
10
10
10
10
10
10
10
10
10
10
10
10
10
10
10
10
10
10
10
10
10
10
10
10
10
10
10
10
10
10
10
10
10
10
10
10
10
10
10
10
10
10
10
10
10
10
10
10
10
10
10
10
10
10
10
10
10
10
10
10
10
10
10
10
10
10
10
10
10
10
10
10
10
10
10
10
10
10
10
10
10
10
10
10
10
10
10
10
10
10
10
10
10
10
10
10
10
10
10
10
10
10
10
10
10
10
10
10
10
10
10
10
10
10
10
10
10
10
10
10
10
10
10
10
10
10
10
10
10
10
10
10
10
10
10
10
10
10
10
10
10
10
10
10
10
10
10
10
10
10
10
10
10
10
10
10
10
10
10
10
10
10
10
10
10
10
10
10
10
10
10
10
10
10
10
10
10
10
10
10
10
10
10
10
10
10
10
10
10
10
10
10
10
10
10
10
10
10
10
10
10
10
10
10
10
10
10
10
10
10
10
10
10
10
10
10
10
10
10
10
10
10
10
10
10
10
10
10
10
10
10
10
10
10
10
10
10
10
10
10
10
10
10
10
10
10
10
10
10
10
10
10
10
10
10
10
10
10
10
10
10
10
10
10
10
10
10
10
10
10
10
10
10
10
10
10
10
10
10
10
10
10
10
10
10
10
10
10
10
10
10
10
10
10
10
10
10
10
10
10
10
10
10
10
10
10
10
10
10
10
10
10
10
10
10
10
10
10
10
10
10
10
10
10
10
10
10
10
10
10
10
10
10
10
10
10
10
10
10
10
10
10
10
10
10
10
10
10
10
10
10
10
10
10
10
10
10
10
10
10
10
10
10
10
10
10
10
10
10
10
10
10
10
10
10
10
10
10
10
10
10
10
10
10
10
10
10
10
10
10
10
10
10
10
10
10
10
10
10
10
10
10
10
10
10
10
10
10
10
10
10
10
10
10
10
10
10
10
10
10
10
10
10
10
10
10
10
10
10
10
10
10
10
10
10
10
10
10
10
10
10
10
10
10
10
10
10
10
10
10
10
10
10
10
10
10
10
10
10
10
10
10
10
10
10
10
10
10
10
10
10
10
10
10
10
10
10
10
10
10
10
10
10
10
10
10
10
10
10
10
10
10
10
10
10
10
10
10
10
10
10
10
10
10
10
10
10
10
10
10
10
10
10
10
10
10
10
10
10
10
10
10
10
10
10
10
10
10
10
10
10
10
10
10
10
10
10
10
10
10
10
10
10
10
10
10
10
10
10
10
10
10
10
10
10
10
10
10
10
10
10
10
10
10
10
10
10
10
10
10
10
10
10
10
10
10
10
10
10
10
10
10
10
10
10
10
10
10
10
10
10
10
10
10
10
10
10
10
10
10
10
10
10

CELL_DATA 734
SCALARS potentialEnergy FLOAT 1
LOOKUP_TABLE default
118.534256
118.632210
127.370247
145.261414
139.774750
122.748634
82.464050
186.587494
69.638229
223.842102
66.443417
75.254974
40.389620
57.029293
22.566257
58.656307
56.406166
59.797192
51.896416
48.935467
76.363914
53.842789
84.850967
89.894241
54.366360
56.321209
35.553509
39.768274
93.745728
125.155998
151.416260
119.260773
184.883331
49.649067
43.599152
63.976601
57.459190
22.139007
137.825981
138.887772
120.255913
294.673645
174.522232
211.120377
338.038879
345.063904
135.447517
235.299744
225.609970
67.927891
103.772003
297.278778
369.713104
295.115875
212.736267
96.204590
50.544327
126.766296
39.967438
161.340302
65.584385
66.608475
90.280838
68.669384
59.676392
63.825665
67.790741
53.269886
19.873460
114.325630
67.655262
85.411545
65.155544
80.058609
55.650482
203.680008
213.114059
151.229889
75.801758
78.430382
128.692795
44.502171
58.467804
119.030678
99.805923
205.588791
85.099075
241.387817
86.675049
177.599625
103.425911
105.547768
74.007706
80.531158
67.226334
116.802490
35.076811
96.295151
150.100586
35.543657
43.027321
107.936867
79.867882
74.864197
56.264484
165.787781
85.576149
138.086517
100.893616
86.763496
80.644424
115.578064
37.154982
37.831274
206.762894
45.151169
21.178788
33.197046
30.886147
23.870003
79.894112
48.811295
67.488075
63.711002
61.363338
222.849884
74.810295
172.245499
149.232285
41.767820
102.711739
55.374626
33.258615
19.559508
126.429756
224.557175
110.546844
107.191170
45.131824
22.028717
48.911213
33.617542
54.241867
120.137627
69.757702
278.644104
44.634464
21.836205
36.096842
50.437424
44.759521
67.516895
51.876129
56.517227
46.304508
76.805580
64.236122
152.240097
202.153702
97.274620
263.135269
190.439621
154.266006
188.370483
288.212830
118.091133
89.422714
114.162567
58.465527
102.627930
84.075752
60.125866
84.502174
44.664101
27.754368
136.314819
100.468277
95.127434
229.458084
89.520058
302.799927
195.690933
33.146820
52.853283
127.491562
94.579140
138.912659
48.280289
150.418808
106.119019
92.483307
36.878077
105.904984
70.054653
28.427408
96.021721
87.163803
19.457762
76.055206
107.319954
148.507950
70.247269
128.491806
156.475555
118.093369
115.888771
157.164719
158.259872
43.741768
127.495117
137.552429
128.489403
185.176147
120.789429
136.108292
222.807449
29.828894
49.579472
128.736511
128.890427
125.036568
53.371910
64.423103
93.148285
58.614082
30.521635
55.163708
159.656921
134.158607
23.804511
40.171040
15.267127
34.999908
84.098389
120.610291
64.852505
138.433731
84.626221
82.538452
21.907229
56.821129
59.632942
46.935806
36.884451
42.446030
126.424690
134.708885
226.649933
331.131958
42.234734
278.107056
299.430939
597.335144
202.517319
178.438171
68.899548
52.329594
36.266180
93.500702
79.496017
64.316631
50.442219
114.182159
106.765068
82.978882
71.392204
70.972973
51.378250
194.298462
112.128571
157.607422
105.792160
73.298645
99.250717
387.885834
133.281281
135.497360
147.935944
66.765640
234.535110
225.044601
300.660767
344.621552
238.409683
142.197647
175.527695
71.344185
260.174698
118.242210
120.163147
147.211792
84.927483
42.691299
97.520233
62.240299
34.772320
43.019085
54.865055
126.405350
86.615082
83.909653
99.088600
24.575646
30.008524
41.675585
138.447266
176.849396
50.749321
52.800678
55.207310
97.189613
103.652695
87.154137
89.908279
27.893299
135.860802
30.454817
42.930721
125.831215
52.143711
33.775570
20.260960
35.888382
35.751072
51.670197
49.946281
54.316288
258.926712
153.501053
200.960495
303.169495
75.040688
99.833809
158.550247
102.100891
75.954468
33.980036
64.314934
94.605667
163.182114
73.766064
108.104332
74.975014
82.892815
256.867218
38.736692
33.489496
93.343063
175.645599
62.266617
61.009510
142.323990
329.313812
195.593063
264.112671
192.346756
422.893311
226.011261
152.977188
110.936012
110.626602
113.223549
205.009613
178.823578
47.165421
38.422440
24.496596
38.284765
66.073402
89.249855
22.075997
117.619438
52.644375
138.421814
53.163094
296.727905
48.185646
42.149536
110.039955
40.393244
246.404633
55.350094
40.930679
56.659439
208.924835
64.461643
62.230095
60.643768
82.801025
221.813034
134.183723
39.901974
51.023624
92.257271
86.979637
71.087086
97.207108
57.457397
119.146805
83.092827
87.418549
143.365341
205.848602
144.867966
115.904976
124.324051
99.879066
191.206268
64.379963
128.851143
142.425980
140.115753
101.907097
152.416946
77.290321
32.201759
44.427650
42.279198
192.153656
121.192886
124.020767
26.961491
112.520370
89.511429
179.379929
41.001316
63.435722
56.230541
65.056271
111.728760
184.132599
184.410278
92.528320
147.747955
315.466583
71.534626
249.868515
313.447784
107.693230
65.147141
190.653168
286.345428
83.578079
81.703621
158.161652
130.297211
247.413635
206.793610
98.066299
112.023567
172.501038
91.661888
61.836239
251.746933
79.256546
99.521584
210.970917
146.947311
219.078445
52.707314
292.862640
103.537506
93.549416
73.756969
70.772667
61.307049
21.445185
32.244577
38.612619
124.815140
42.431686
17.562500
31.255531
105.594688
133.192009
37.076845
144.570251
74.500938
23.972109
21.281639
95.613556
98.305962
112.713028
54.112972
332.581482
112.868027
278.878052
187.391556
122.454918
131.932884
75.350555
52.644363
88.773727
45.553612
38.618402
68.036469
49.324207
59.023495
38.187952
24.881709
65.283123
187.125504
353.637299
67.946854
88.677620
54.553566
44.511364
134.613373
123.281502
81.514229
28.691067
26.187082
106.114853
57.687378
63.609997
94.051277
45.656044
61.806496
105.732605
95.377266
122.868965
67.146225
89.702934
166.780457
110.803238
116.764366
55.723660
32.917521
32.849506
144.288574
31.433695
70.742970
78.655022
52.033394
39.510416
172.666290
30.852207
84.218887
141.210846
64.043453
53.049995
39.013708
36.936815
144.429901
172.273056
49.849693
42.055031
108.643471
80.820190
160.243881
109.149811
168.441864
44.263523
85.195915
69.186279
68.874561
80.606323
167.542801
124.349670
184.668320
64.679436
43.023434
70.407036
144.831238
285.532867
20.755008
67.733185
108.891495
55.480385
59.554394
92.888237
147.022812
300.616852
187.247055
51.441235
48.765701
100.055611
64.310177
157.835358
111.209282
159.609406
190.862320
246.862717
107.270088
111.803017
147.481766
35.704786
66.241211
23.642702
64.539276
90.040764
109.413094
198.127640
92.382179
55.329960
77.316193
162.503479
29.832052
33.514122
97.024979
79.980286
65.732182
63.926147
45.906250
259.895966
81.862473
314.785187
30.800350
16.170552
23.053390
26.839594
13.209468
94.103584
160.042007
118.073227
136.317719
227.384155
186.460464
94.689407
63.723541
90.350365
92.059311
34.968885
44.307911
82.613472
131.902786
195.744492
119.522278
126.216385
83.513977
81.095230
69.612511
142.847839
151.470703
213.576492
107.637489
50.224289
136.614792
146.301712
113.572868
86.924400
89.977913
206.141479
239.648178
231.359344
110.344086
163.884720
114.822243
127.099365
50.428135
51.020760
73.401974
89.625206
41.340225
417.240906
226.631805
256.625992
148.966049
69.179569
151.723694
210.279480
75.833176
139.891968
107.435318
117.386749
101.749893
21.244987
125.782440
170.334305
233.917511
130.715858
182.377197
60.885956
56.915257
94.024384
90.999466
217.600311
179.549484
201.104630
199.122421
62.635937
113.221550
248.138687
147.444870
114.531441
168.006363
131.480888
69.449112
39.671431
91.924667
100.962982
120.281441
27.469048
88.833511
33.934319
30.239653
78.592766
37.243902
51.919937
88.444809
50.737579
20.356535
46.999775
21.699299
25.917641
71.712223
77.016640
58.173683
53.573475
77.166336
26.215288
21.635698
114.405243
40.664503
130.030998
106.731445
44.128391
27.146959
184.331146
92.218742
56.280163
177.683167
60.154236
150.098068
189.457901
93.218857
111.424873
70.378609
54.646904
135.612717
84.956161
184.721512
192.105667
95.266998

